LAMMPS data file
# Generated by Playmol on 3-Mar-2020 at 14:02:28

2 atom types
1 bond types
1 angle types

6 atoms
4 bonds
2 angles

-10.0 10.0 xlo xhi
-10.0 10.0 ylo yhi
-10.0 10.0 zlo zhi

Masses

1 1.00790000 # HW
2 15.9994001 # OW

# Elements: H O

Pair Coeffs # lj/cut/coul/long

1 0.0000 0.0000 # HW
2 0.1554252 3.165492 # OW

Bond Coeffs # harmonic

1 529.5810 1.012 # HW OW

Angle Coeffs # harmonic

1 37.9500 113.24 # HW OW HW

Atoms

1 1 1 0.41 -0.7071094015739448 -4.124237034791406 -7.944252516783276 # H1
2 1 2 -0.82 -0.2858613494083766 -3.2679208714846837 -7.60747854658016 # O
3 1 1 0.41 -0.755634950711924 -2.8833471018805303 -6.797812084849932 # H2
4 2 1 0.41 -6.4153833647322305 4.7049663018026475 3.33048903578851 # H1
5 2 2 -0.82 -6.734696259555905 4.562377516382382 2.3808303005200457 # O
6 2 1 0.41 -6.182375357696667 5.060773438223553 1.6947638850313655 # H2

Bonds

1 1 2 1 # O H1
2 1 2 3 # O H2
3 1 5 4 # O H1
4 1 5 6 # O H2

Angles

1 1 1 2 3 # H1 O H2
2 1 4 5 6 # H1 O H2
