LAMMPS data file
# Generated by Playmol on 3-Mar-2020 at 14:02:28

2 atom types
1 bond types
1 angle types

192 atoms
128 bonds
64 angles

-6.406 6.406 xlo xhi
-6.406 6.406 ylo yhi
-6.406 6.406 zlo zhi

Masses

1 1.00790000 # HW
2 15.9994001 # OW

# Elements: H O

Pair Coeffs # lj/cut/coul/long

1 0.0000 0.0000 # HW
2 0.1554252 3.165492 # OW

Bond Coeffs # harmonic

1 529.5810 1.012 # HW OW

Angle Coeffs # harmonic

1 37.9500 113.24 # HW OW HW

Atoms

1 1 1 0.41 5.286 5.265 -3.814 # H1
2 1 2 -0.82 5.475 6.027 -3.153 # O
3 1 1 0.41 4.882 5.867 -2.331 # H2
4 2 1 0.41 3.767 4.668 -5.284 # H1
5 2 2 -0.82 4.712 4.271 -5.249 # O
6 2 1 0.41 5.318 4.441 -6.060 # H2
7 3 1 0.41 -2.369 2.690 -4.441 # H1
8 3 2 -0.82 -1.422 2.338 -4.627 # O
9 3 1 0.41 -0.688 3.049 -4.453 # H2
10 4 1 0.41 -1.318 4.885 6.714 # H1
11 4 2 -0.82 -1.539 4.936 5.721 # O
12 4 1 0.41 -1.316 4.088 5.204 # H2
13 5 1 0.41 2.135 7.210 -2.822 # H1
14 5 2 -0.82 2.050 6.180 -2.901 # O
15 5 1 0.41 2.107 5.956 -3.902 # H2
16 6 1 0.41 -4.856 -0.562 2.284 # H1
17 6 2 -0.82 -4.129 0.086 2.555 # O
18 6 1 0.41 -3.376 -0.417 3.004 # H2
19 7 1 0.41 1.807 4.608 -6.285 # H1
20 7 2 -0.82 2.316 5.462 -6.058 # O
21 7 1 0.41 2.590 5.846 -6.973 # H2
22 8 1 0.41 -6.054 0.147 -6.226 # H1
23 8 2 -0.82 -5.316 0.377 -5.556 # O
24 8 1 0.41 -4.692 1.044 -5.982 # H2
25 9 1 0.41 3.922 1.153 -4.420 # H1
26 9 2 -0.82 2.980 0.796 -4.315 # O
27 9 1 0.41 2.781 0.145 -5.086 # H2
28 10 1 0.41 2.387 -6.393 3.393 # H1
29 10 2 -0.82 2.931 -6.316 4.254 # O
30 10 1 0.41 3.574 -5.528 4.125 # H2
31 11 1 0.41 5.123 2.640 -4.690 # H1
32 11 2 -0.82 5.371 1.731 -4.327 # O
33 11 1 0.41 5.925 1.247 -5.055 # H2
34 12 1 0.41 3.740 1.669 2.659 # H1
35 12 2 -0.82 4.637 2.120 2.849 # O
36 12 1 0.41 4.830 2.798 2.149 # H2
37 13 1 0.41 -0.147 6.088 -0.730 # H1
38 13 2 -0.82 -1.022 6.209 -1.257 # O
39 13 1 0.41 -1.481 7.121 -1.138 # H2
40 14 1 0.41 2.225 -2.917 2.190 # H1
41 14 2 -0.82 1.665 -3.721 1.872 # O
42 14 1 0.41 1.512 -3.720 0.887 # H2
43 15 1 0.41 -0.458 -0.244 6.491 # H1
44 15 2 -0.82 -0.862 0.539 6.003 # O
45 15 1 0.41 -1.284 1.121 6.755 # H2
46 16 1 0.41 4.754 0.074 -0.375 # H1
47 16 2 -0.82 4.422 -0.207 0.531 # O
48 16 1 0.41 5.064 -0.882 0.959 # H2
49 17 1 0.41 -5.011 1.406 -4.064 # H1
50 17 2 -0.82 -4.526 2.097 -3.468 # O
51 17 1 0.41 -5.047 2.957 -3.683 # H2
52 18 1 0.41 -4.274 2.148 4.267 # H1
53 18 2 -0.82 -4.567 2.451 5.192 # O
54 18 1 0.41 -4.371 3.428 5.415 # H2
55 19 1 0.41 1.042 5.818 1.612 # H1
56 19 2 -0.82 1.928 6.283 1.812 # O
57 19 1 0.41 1.890 7.277 1.661 # H2
58 20 1 0.41 1.115 1.113 -1.049 # H1
59 20 2 -0.82 1.281 0.465 -0.287 # O
60 20 1 0.41 2.283 0.516 -0.133 # H2
61 21 1 0.41 6.351 -1.843 4.881 # H1
62 21 2 -0.82 5.485 -2.233 4.536 # O
63 21 1 0.41 5.602 -3.240 4.520 # H2
64 22 1 0.41 4.269 -1.651 -3.112 # H1
65 22 2 -0.82 4.257 -2.563 -3.539 # O
66 22 1 0.41 4.998 -3.187 -3.193 # H2
67 23 1 0.41 -0.784 3.217 -0.369 # H1
68 23 2 -0.82 -0.943 3.440 -1.337 # O
69 23 1 0.41 -0.971 4.451 -1.459 # H2
70 24 1 0.41 -3.212 1.591 -2.387 # H1
71 24 2 -0.82 -2.869 1.503 -1.423 # O
72 24 1 0.41 -2.027 2.033 -1.257 # H2
73 25 1 0.41 5.340 0.637 -3.120 # H1
74 25 2 -0.82 5.285 0.107 -2.239 # O
75 25 1 0.41 6.182 0.169 -1.785 # H2
76 26 1 0.41 -2.340 -4.483 -5.608 # H1
77 26 2 -0.82 -2.564 -5.150 -4.856 # O
78 26 1 0.41 -3.291 -5.789 -5.178 # H2
79 27 1 0.41 -2.955 -4.607 5.120 # H1
80 27 2 -0.82 -2.458 -3.711 5.222 # O
81 27 1 0.41 -1.512 -3.663 4.868 # H2
82 28 1 0.41 -4.019 -2.264 5.520 # H1
83 28 2 -0.82 -4.928 -1.884 5.645 # O
84 28 1 0.41 -4.894 -1.392 6.525 # H2
85 29 1 0.41 -2.867 5.802 -2.409 # H1
86 29 2 -0.82 -3.856 5.720 -2.357 # O
87 29 1 0.41 -4.159 5.667 -1.389 # H2
88 30 1 0.41 -5.835 -4.477 -4.557 # H1
89 30 2 -0.82 -5.442 -4.522 -5.488 # O
90 30 1 0.41 -5.418 -3.609 -5.923 # H2
91 31 1 0.41 -6.280 4.627 -2.710 # H1
92 31 2 -0.82 -6.332 3.963 -1.903 # O
93 31 1 0.41 -7.112 3.308 -2.045 # H2
94 32 1 0.41 -0.047 -2.580 -0.739 # H1
95 32 2 -0.82 0.961 -2.361 -0.773 # O
96 32 1 0.41 1.090 -1.364 -0.912 # H2
97 33 1 0.41 4.263 5.167 4.404 # H1
98 33 2 -0.82 5.009 4.487 4.651 # O
99 33 1 0.41 4.939 3.615 4.103 # H2
100 34 1 0.41 -0.157 0.349 0.660 # H1
101 34 2 -0.82 -0.937 0.492 1.358 # O
102 34 1 0.41 -0.763 -0.172 2.094 # H2
103 35 1 0.41 3.963 5.023 0.337 # H1
104 35 2 -0.82 4.270 4.753 1.254 # O
105 35 1 0.41 3.489 5.006 1.869 # H2
106 36 1 0.41 -1.474 2.793 3.621 # H1
107 36 2 -0.82 -0.865 2.720 4.445 # O
108 36 1 0.41 -0.830 1.819 4.878 # H2
109 37 1 0.41 -6.284 4.756 3.538 # H1
110 37 2 -0.82 -5.437 5.275 3.296 # O
111 37 1 0.41 -5.227 5.060 2.314 # H2
112 38 1 0.41 -5.520 5.880 -4.840 # H1
113 38 2 -0.82 -5.033 5.006 -4.685 # O
114 38 1 0.41 -4.539 5.042 -3.803 # H2
115 39 1 0.41 5.967 -1.927 2.838 # H1
116 39 2 -0.82 6.378 -1.886 1.907 # O
117 39 1 0.41 6.941 -2.703 1.748 # H2
118 40 1 0.41 0.258 -3.426 -2.768 # H1
119 40 2 -0.82 -0.525 -3.240 -3.357 # O
120 40 1 0.41 -1.309 -3.885 -3.374 # H2
121 41 1 0.41 -6.529 -5.251 -2.672 # H1
122 41 2 -0.82 -6.170 -4.317 -2.914 # O
123 41 1 0.41 -5.336 -4.031 -2.431 # H2
124 42 1 0.41 1.676 -5.414 -6.143 # H1
125 42 2 -0.82 0.777 -4.940 -6.036 # O
126 42 1 0.41 0.137 -5.417 -5.418 # H2
127 43 1 0.41 -1.544 -0.401 4.518 # H1
128 43 2 -0.82 -1.483 -1.090 3.785 # O
129 43 1 0.41 -0.857 -1.844 4.023 # H2
130 44 1 0.41 -1.483 6.300 -4.156 # H1
131 44 2 -0.82 -0.753 5.594 -4.146 # O
132 44 1 0.41 -0.302 5.712 -3.246 # H2
133 45 1 0.41 1.975 1.869 -3.135 # H1
134 45 2 -0.82 1.466 2.503 -2.528 # O
135 45 1 0.41 0.459 2.451 -2.551 # H2
136 46 1 0.41 2.604 3.661 -1.406 # H1
137 46 2 -0.82 3.086 4.540 -1.276 # O
138 46 1 0.41 2.575 5.244 -1.835 # H2
139 47 1 0.41 0.767 -3.514 3.499 # H1
140 47 2 -0.82 0.145 -3.586 4.322 # O
141 47 1 0.41 0.530 -4.149 5.048 # H2
142 48 1 0.41 -5.049 -0.227 -0.161 # H1
143 48 2 -0.82 -5.303 0.495 -0.824 # O
144 48 1 0.41 -4.479 1.068 -1.083 # H2
145 49 1 0.41 -0.794 4.444 1.570 # H1
146 49 2 -0.82 -0.509 5.365 1.814 # O
147 49 1 0.41 -1.129 5.836 2.465 # H2
148 50 1 0.41 -6.627 5.458 1.041 # H1
149 50 2 -0.82 -5.764 5.506 0.482 # O
150 50 1 0.41 -5.942 5.101 -0.418 # H2
151 51 1 0.41 1.412 0.852 3.575 # H1
152 51 2 -0.82 1.710 1.607 3.020 # O
153 51 1 0.41 0.957 2.291 2.977 # H2
154 52 1 0.41 3.455 -0.821 5.740 # H1
155 52 2 -0.82 2.655 -0.236 5.918 # O
156 52 1 0.41 1.822 -0.827 5.836 # H2
157 53 1 0.41 -2.861 2.803 1.585 # H1
158 53 2 -0.82 -1.865 2.925 1.747 # O
159 53 1 0.41 -1.341 2.073 1.729 # H2
160 54 1 0.41 -5.451 -5.343 1.668 # H1
161 54 2 -0.82 -5.039 -4.634 2.233 # O
162 54 1 0.41 -5.319 -4.791 3.203 # H2
163 55 1 0.41 -4.913 2.395 0.580 # H1
164 55 2 -0.82 -4.512 2.648 1.478 # O
165 55 1 0.41 -4.452 1.841 2.101 # H2
166 56 1 0.41 3.146 -1.173 2.705 # H1
167 56 2 -0.82 3.092 -2.083 3.182 # O
168 56 1 0.41 3.963 -2.295 3.692 # H2
169 57 1 0.41 -1.853 -3.166 -0.775 # H1
170 57 2 -0.82 -1.851 -4.123 -0.466 # O
171 57 1 0.41 -2.365 -4.206 0.396 # H2
172 58 1 0.41 -2.053 -0.466 -0.285 # H1
173 58 2 -0.82 -2.078 -1.359 -0.783 # O
174 58 1 0.41 -2.642 -1.205 -1.649 # H2
175 59 1 0.41 -2.429 -6.804 5.006 # H1
176 59 2 -0.82 -3.140 -6.167 4.592 # O
177 59 1 0.41 -3.879 -6.687 4.157 # H2
178 60 1 0.41 2.743 -3.404 -3.252 # H1
179 60 2 -0.82 2.086 -4.000 -2.737 # O
180 60 1 0.41 1.528 -3.550 -1.983 # H2
181 61 1 0.41 -0.078 -1.989 -4.750 # H1
182 61 2 -0.82 0.021 -1.590 -5.667 # O
183 61 1 0.41 -0.418 -2.249 -6.277 # H2
184 62 1 0.41 1.415 1.788 6.579 # H1
185 62 2 -0.82 1.385 2.789 6.383 # O
186 62 1 0.41 1.339 2.946 5.384 # H2
187 63 1 0.41 6.378 -5.143 5.485 # H1
188 63 2 -0.82 6.247 -5.088 4.472 # O
189 63 1 0.41 6.580 -5.977 4.159 # H2
190 64 1 0.41 4.529 1.293 5.785 # H1
191 64 2 -0.82 5.410 0.912 5.399 # O
192 64 1 0.41 5.439 1.062 4.392 # H2

Bonds

1 1 2 1 # O H1
2 1 2 3 # O H2
3 1 5 4 # O H1
4 1 5 6 # O H2
5 1 8 7 # O H1
6 1 8 9 # O H2
7 1 11 10 # O H1
8 1 11 12 # O H2
9 1 14 13 # O H1
10 1 14 15 # O H2
11 1 17 16 # O H1
12 1 17 18 # O H2
13 1 20 19 # O H1
14 1 20 21 # O H2
15 1 23 22 # O H1
16 1 23 24 # O H2
17 1 26 25 # O H1
18 1 26 27 # O H2
19 1 29 28 # O H1
20 1 29 30 # O H2
21 1 32 31 # O H1
22 1 32 33 # O H2
23 1 35 34 # O H1
24 1 35 36 # O H2
25 1 38 37 # O H1
26 1 38 39 # O H2
27 1 41 40 # O H1
28 1 41 42 # O H2
29 1 44 43 # O H1
30 1 44 45 # O H2
31 1 47 46 # O H1
32 1 47 48 # O H2
33 1 50 49 # O H1
34 1 50 51 # O H2
35 1 53 52 # O H1
36 1 53 54 # O H2
37 1 56 55 # O H1
38 1 56 57 # O H2
39 1 59 58 # O H1
40 1 59 60 # O H2
41 1 62 61 # O H1
42 1 62 63 # O H2
43 1 65 64 # O H1
44 1 65 66 # O H2
45 1 68 67 # O H1
46 1 68 69 # O H2
47 1 71 70 # O H1
48 1 71 72 # O H2
49 1 74 73 # O H1
50 1 74 75 # O H2
51 1 77 76 # O H1
52 1 77 78 # O H2
53 1 80 79 # O H1
54 1 80 81 # O H2
55 1 83 82 # O H1
56 1 83 84 # O H2
57 1 86 85 # O H1
58 1 86 87 # O H2
59 1 89 88 # O H1
60 1 89 90 # O H2
61 1 92 91 # O H1
62 1 92 93 # O H2
63 1 95 94 # O H1
64 1 95 96 # O H2
65 1 98 97 # O H1
66 1 98 99 # O H2
67 1 101 100 # O H1
68 1 101 102 # O H2
69 1 104 103 # O H1
70 1 104 105 # O H2
71 1 107 106 # O H1
72 1 107 108 # O H2
73 1 110 109 # O H1
74 1 110 111 # O H2
75 1 113 112 # O H1
76 1 113 114 # O H2
77 1 116 115 # O H1
78 1 116 117 # O H2
79 1 119 118 # O H1
80 1 119 120 # O H2
81 1 122 121 # O H1
82 1 122 123 # O H2
83 1 125 124 # O H1
84 1 125 126 # O H2
85 1 128 127 # O H1
86 1 128 129 # O H2
87 1 131 130 # O H1
88 1 131 132 # O H2
89 1 134 133 # O H1
90 1 134 135 # O H2
91 1 137 136 # O H1
92 1 137 138 # O H2
93 1 140 139 # O H1
94 1 140 141 # O H2
95 1 143 142 # O H1
96 1 143 144 # O H2
97 1 146 145 # O H1
98 1 146 147 # O H2
99 1 149 148 # O H1
100 1 149 150 # O H2
101 1 152 151 # O H1
102 1 152 153 # O H2
103 1 155 154 # O H1
104 1 155 156 # O H2
105 1 158 157 # O H1
106 1 158 159 # O H2
107 1 161 160 # O H1
108 1 161 162 # O H2
109 1 164 163 # O H1
110 1 164 165 # O H2
111 1 167 166 # O H1
112 1 167 168 # O H2
113 1 170 169 # O H1
114 1 170 171 # O H2
115 1 173 172 # O H1
116 1 173 174 # O H2
117 1 176 175 # O H1
118 1 176 177 # O H2
119 1 179 178 # O H1
120 1 179 180 # O H2
121 1 182 181 # O H1
122 1 182 183 # O H2
123 1 185 184 # O H1
124 1 185 186 # O H2
125 1 188 187 # O H1
126 1 188 189 # O H2
127 1 191 190 # O H1
128 1 191 192 # O H2

Angles

1 1 1 2 3 # H1 O H2
2 1 4 5 6 # H1 O H2
3 1 7 8 9 # H1 O H2
4 1 10 11 12 # H1 O H2
5 1 13 14 15 # H1 O H2
6 1 16 17 18 # H1 O H2
7 1 19 20 21 # H1 O H2
8 1 22 23 24 # H1 O H2
9 1 25 26 27 # H1 O H2
10 1 28 29 30 # H1 O H2
11 1 31 32 33 # H1 O H2
12 1 34 35 36 # H1 O H2
13 1 37 38 39 # H1 O H2
14 1 40 41 42 # H1 O H2
15 1 43 44 45 # H1 O H2
16 1 46 47 48 # H1 O H2
17 1 49 50 51 # H1 O H2
18 1 52 53 54 # H1 O H2
19 1 55 56 57 # H1 O H2
20 1 58 59 60 # H1 O H2
21 1 61 62 63 # H1 O H2
22 1 64 65 66 # H1 O H2
23 1 67 68 69 # H1 O H2
24 1 70 71 72 # H1 O H2
25 1 73 74 75 # H1 O H2
26 1 76 77 78 # H1 O H2
27 1 79 80 81 # H1 O H2
28 1 82 83 84 # H1 O H2
29 1 85 86 87 # H1 O H2
30 1 88 89 90 # H1 O H2
31 1 91 92 93 # H1 O H2
32 1 94 95 96 # H1 O H2
33 1 97 98 99 # H1 O H2
34 1 100 101 102 # H1 O H2
35 1 103 104 105 # H1 O H2
36 1 106 107 108 # H1 O H2
37 1 109 110 111 # H1 O H2
38 1 112 113 114 # H1 O H2
39 1 115 116 117 # H1 O H2
40 1 118 119 120 # H1 O H2
41 1 121 122 123 # H1 O H2
42 1 124 125 126 # H1 O H2
43 1 127 128 129 # H1 O H2
44 1 130 131 132 # H1 O H2
45 1 133 134 135 # H1 O H2
46 1 136 137 138 # H1 O H2
47 1 139 140 141 # H1 O H2
48 1 142 143 144 # H1 O H2
49 1 145 146 147 # H1 O H2
50 1 148 149 150 # H1 O H2
51 1 151 152 153 # H1 O H2
52 1 154 155 156 # H1 O H2
53 1 157 158 159 # H1 O H2
54 1 160 161 162 # H1 O H2
55 1 163 164 165 # H1 O H2
56 1 166 167 168 # H1 O H2
57 1 169 170 171 # H1 O H2
58 1 172 173 174 # H1 O H2
59 1 175 176 177 # H1 O H2
60 1 178 179 180 # H1 O H2
61 1 181 182 183 # H1 O H2
62 1 184 185 186 # H1 O H2
63 1 187 188 189 # H1 O H2
64 1 190 191 192 # H1 O H2
