LAMMPS data file
# Generated by Playmol on 3-Mar-2020 at 14:55:22

2 atom types
1 bond types
1 angle types

8232 atoms
5488 bonds
2744 angles

-22.083 22.083 xlo xhi
-22.083 22.083 ylo yhi
-22.083 22.083 zlo zhi

Masses

1 1.00790000 # HW
2 15.9994001 # OW

# Elements: H O

Pair Coeffs # lj/cut/coul/long

1 0.0000 0.0000 # HW
2 0.1554252 3.165492 # OW

Bond Coeffs # harmonic

1 529.5810  1.012 # HW OW

Angle Coeffs # harmonic

1 37.9500 113.24 # HW OW HW

Atoms

1 1 1 0.41 3.790 5.719 9.993 # H1
2 1 2 -0.82 4.781 5.869 9.789 # O
3 1 1 0.41 5.178 6.541 10.439 # H2
4 2 1 0.41 19.366 13.111 -18.611 # H1
5 2 2 -0.82 20.203 13.461 -18.179 # O
6 2 1 0.41 20.385 13.011 -17.265 # H2
7 3 1 0.41 21.141 1.082 20.619 # H1
8 3 2 -0.82 21.100 1.404 21.567 # O
9 3 1 0.41 21.625 0.724 22.127 # H2
10 4 1 0.41 -7.843 -13.542 10.129 # H1
11 4 2 -0.82 -8.313 -12.601 10.216 # O
12 4 1 0.41 -7.580 -11.965 10.570 # H2
13 5 1 0.41 -15.034 -18.098 -8.588 # H1
14 5 2 -0.82 -14.678 -17.657 -9.481 # O
15 5 1 0.41 -14.516 -18.328 -10.238 # H2
16 6 1 0.41 15.038 19.098 -6.487 # H1
17 6 2 -0.82 14.871 19.769 -7.206 # O
18 6 1 0.41 14.179 19.542 -7.907 # H2
19 7 1 0.41 10.921 3.799 -18.405 # H1
20 7 2 -0.82 10.428 4.225 -19.199 # O
21 7 1 0.41 10.545 3.682 -20.078 # H2
22 8 1 0.41 11.756 -6.544 8.469 # H1
23 8 2 -0.82 11.119 -7.262 8.126 # O
24 8 1 0.41 10.417 -6.877 7.521 # H2
25 9 1 0.41 9.414 -2.057 -14.851 # H1
26 9 2 -0.82 9.496 -1.427 -14.075 # O
27 9 1 0.41 9.767 -0.498 -14.392 # H2
28 10 1 0.41 8.467 20.715 -0.163 # H1
29 10 2 -0.82 9.021 21.465 -0.605 # O
30 10 1 0.41 8.402 22.194 -1.001 # H2
31 11 1 0.41 18.751 8.552 -15.912 # H1
32 11 2 -0.82 17.917 8.972 -15.525 # O
33 11 1 0.41 18.187 9.589 -14.759 # H2
34 12 1 0.41 -4.484 0.596 15.606 # H1
35 12 2 -0.82 -4.251 -0.371 15.848 # O
36 12 1 0.41 -3.260 -0.604 15.690 # H2
37 13 1 0.41 -14.024 -13.359 5.331 # H1
38 13 2 -0.82 -13.649 -14.298 5.471 # O
39 13 1 0.41 -13.615 -14.896 4.609 # H2
40 14 1 0.41 19.293 6.743 -5.867 # H1
41 14 2 -0.82 19.277 6.636 -4.833 # O
42 14 1 0.41 18.368 6.201 -4.664 # H2
43 15 1 0.41 9.172 10.845 22.188 # H1
44 15 2 -0.82 9.159 9.980 21.694 # O
45 15 1 0.41 9.408 9.152 22.195 # H2
46 16 1 0.41 3.353 1.708 -9.855 # H1
47 16 2 -0.82 2.960 0.828 -9.568 # O
48 16 1 0.41 2.927 0.167 -10.316 # H2
49 17 1 0.41 -3.149 0.935 5.226 # H1
50 17 2 -0.82 -2.891 1.596 4.470 # O
51 17 1 0.41 -2.024 1.275 3.984 # H2
52 18 1 0.41 14.501 9.669 -17.692 # H1
53 18 2 -0.82 14.084 9.905 -18.593 # O
54 18 1 0.41 14.145 9.080 -19.139 # H2
55 19 1 0.41 -13.845 -12.627 -9.925 # H1
56 19 2 -0.82 -14.544 -11.969 -9.669 # O
57 19 1 0.41 -15.429 -12.166 -10.095 # H2
58 20 1 0.41 -6.162 5.581 -20.255 # H1
59 20 2 -0.82 -5.679 6.225 -20.894 # O
60 20 1 0.41 -5.204 5.800 -21.647 # H2
61 21 1 0.41 19.770 15.491 -14.275 # H1
62 21 2 -0.82 20.105 14.765 -14.890 # O
63 21 1 0.41 20.700 14.104 -14.351 # H2
64 22 1 0.41 -2.809 8.756 1.549 # H1
65 22 2 -0.82 -3.405 8.577 2.391 # O
66 22 1 0.41 -3.930 9.401 2.643 # H2
67 23 1 0.41 4.504 0.301 -21.637 # H1
68 23 2 -0.82 4.266 0.295 -20.635 # O
69 23 1 0.41 4.792 -0.463 -20.149 # H2
70 24 1 0.41 13.940 22.039 -16.068 # H1
71 24 2 -0.82 14.750 21.909 -15.436 # O
72 24 1 0.41 15.341 22.762 -15.396 # H2
73 25 1 0.41 -9.779 -12.996 -9.516 # H1
74 25 2 -0.82 -9.640 -12.463 -10.367 # O
75 25 1 0.41 -8.870 -11.783 -10.201 # H2
76 26 1 0.41 16.973 13.122 -22.712 # H1
77 26 2 -0.82 16.546 12.474 -22.019 # O
78 26 1 0.41 17.292 12.299 -21.353 # H2
79 27 1 0.41 9.630 18.495 -7.120 # H1
80 27 2 -0.82 9.825 19.112 -6.327 # O
81 27 1 0.41 9.824 20.136 -6.518 # H2
82 28 1 0.41 18.394 15.754 -17.712 # H1
83 28 2 -0.82 19.056 16.161 -17.079 # O
84 28 1 0.41 19.389 15.478 -16.407 # H2
85 29 1 0.41 15.673 15.044 -0.140 # H1
86 29 2 -0.82 15.812 14.283 -0.793 # O
87 29 1 0.41 16.334 13.548 -0.277 # H2
88 30 1 0.41 22.639 17.790 18.263 # H1
89 30 2 -0.82 21.889 17.700 17.578 # O
90 30 1 0.41 22.145 17.172 16.718 # H2
91 31 1 0.41 -19.352 17.752 -9.016 # H1
92 31 2 -0.82 -19.739 16.870 -8.646 # O
93 31 1 0.41 -19.256 16.051 -9.035 # H2
94 32 1 0.41 -6.666 -7.989 -3.092 # H1
95 32 2 -0.82 -6.677 -8.431 -2.156 # O
96 32 1 0.41 -7.064 -7.827 -1.409 # H2
97 33 1 0.41 0.972 -16.039 -9.078 # H1
98 33 2 -0.82 0.512 -16.413 -8.251 # O
99 33 1 0.41 1.170 -16.880 -7.644 # H2
100 34 1 0.41 -22.282 -19.736 8.391 # H1
101 34 2 -0.82 -21.313 -19.887 8.124 # O
102 34 1 0.41 -20.813 -19.188 7.553 # H2
103 35 1 0.41 7.935 10.960 -18.697 # H1
104 35 2 -0.82 8.421 11.861 -18.664 # O
105 35 1 0.41 8.818 11.928 -17.721 # H2
106 36 1 0.41 17.720 -8.017 -21.091 # H1
107 36 2 -0.82 18.315 -7.750 -21.875 # O
108 36 1 0.41 17.794 -6.979 -22.344 # H2
109 37 1 0.41 -21.698 18.323 -13.407 # H1
110 37 2 -0.82 -21.899 17.740 -12.589 # O
111 37 1 0.41 -21.939 18.380 -11.783 # H2
112 38 1 0.41 9.095 -2.664 11.267 # H1
113 38 2 -0.82 9.455 -1.880 11.795 # O
114 38 1 0.41 9.725 -2.156 12.736 # H2
115 39 1 0.41 -14.040 1.388 -20.619 # H1
116 39 2 -0.82 -13.320 1.685 -21.307 # O
117 39 1 0.41 -13.799 2.067 -22.091 # H2
118 40 1 0.41 -1.464 -1.084 4.250 # H1
119 40 2 -0.82 -2.025 -1.190 5.077 # O
120 40 1 0.41 -2.905 -1.657 4.823 # H2
121 41 1 0.41 20.914 -14.323 3.027 # H1
122 41 2 -0.82 20.911 -15.027 3.789 # O
123 41 1 0.41 19.981 -15.102 4.224 # H2
124 42 1 0.41 -9.972 -20.637 -5.573 # H1
125 42 2 -0.82 -10.075 -21.504 -5.077 # O
126 42 1 0.41 -10.984 -21.925 -5.213 # H2
127 43 1 0.41 6.878 13.062 11.878 # H1
128 43 2 -0.82 7.205 12.125 11.992 # O
129 43 1 0.41 8.039 12.000 11.388 # H2
130 44 1 0.41 -5.989 14.133 -22.677 # H1
131 44 2 -0.82 -5.778 14.847 -22.016 # O
132 44 1 0.41 -6.538 15.564 -22.077 # H2
133 45 1 0.41 0.396 -10.510 12.898 # H1
134 45 2 -0.82 0.295 -10.859 11.966 # O
135 45 1 0.41 -0.154 -10.263 11.292 # H2
136 46 1 0.41 6.893 16.792 -4.579 # H1
137 46 2 -0.82 6.252 16.745 -5.366 # O
138 46 1 0.41 6.751 16.391 -6.200 # H2
139 47 1 0.41 7.868 -1.989 21.989 # H1
140 47 2 -0.82 7.305 -1.842 21.164 # O
141 47 1 0.41 7.771 -1.281 20.411 # H2
142 48 1 0.41 -11.997 0.043 -21.276 # H1
143 48 2 -0.82 -11.794 -0.910 -21.562 # O
144 48 1 0.41 -12.643 -1.415 -21.780 # H2
145 49 1 0.41 -12.488 20.201 -4.649 # H1
146 49 2 -0.82 -12.478 21.165 -4.929 # O
147 49 1 0.41 -13.237 21.716 -4.519 # H2
148 50 1 0.41 -16.233 -3.324 -11.222 # H1
149 50 2 -0.82 -16.430 -3.962 -12.025 # O
150 50 1 0.41 -16.978 -3.514 -12.753 # H2
151 51 1 0.41 10.013 -2.040 -6.375 # H1
152 51 2 -0.82 10.469 -1.513 -5.599 # O
153 51 1 0.41 10.444 -0.535 -5.988 # H2
154 52 1 0.41 -19.396 9.962 -11.099 # H1
155 52 2 -0.82 -18.951 9.086 -11.387 # O
156 52 1 0.41 -18.034 9.047 -10.944 # H2
157 53 1 0.41 -18.630 2.507 -13.561 # H1
158 53 2 -0.82 -18.479 2.413 -14.567 # O
159 53 1 0.41 -18.863 3.199 -15.087 # H2
160 54 1 0.41 12.133 -12.671 -12.613 # H1
161 54 2 -0.82 12.438 -13.580 -12.262 # O
162 54 1 0.41 12.268 -13.614 -11.262 # H2
163 55 1 0.41 -17.403 4.512 -10.066 # H1
164 55 2 -0.82 -18.198 4.536 -10.757 # O
165 55 1 0.41 -18.022 5.169 -11.526 # H2
166 56 1 0.41 2.693 -2.398 4.984 # H1
167 56 2 -0.82 3.259 -2.226 5.803 # O
168 56 1 0.41 4.006 -1.531 5.632 # H2
169 57 1 0.41 15.348 -20.326 2.015 # H1
170 57 2 -0.82 14.992 -20.371 2.961 # O
171 57 1 0.41 13.993 -20.413 3.065 # H2
172 58 1 0.41 4.624 -22.130 -0.272 # H1
173 58 2 -0.82 5.386 -21.554 -0.651 # O
174 58 1 0.41 5.454 -21.623 -1.669 # H2
175 59 1 0.41 -9.334 -1.414 17.808 # H1
176 59 2 -0.82 -10.355 -1.382 17.846 # O
177 59 1 0.41 -10.672 -0.797 18.654 # H2
178 60 1 0.41 -15.880 -15.506 -18.886 # H1
179 60 2 -0.82 -16.713 -15.483 -18.283 # O
180 60 1 0.41 -17.222 -16.377 -18.195 # H2
181 61 1 0.41 -16.844 12.623 -4.130 # H1
182 61 2 -0.82 -15.964 12.584 -4.638 # O
183 61 1 0.41 -15.302 12.097 -3.993 # H2
184 62 1 0.41 -4.312 -8.599 6.153 # H1
185 62 2 -0.82 -5.301 -8.289 6.222 # O
186 62 1 0.41 -5.624 -7.840 7.106 # H2
187 63 1 0.41 5.035 8.269 16.398 # H1
188 63 2 -0.82 5.907 8.828 16.334 # O
189 63 1 0.41 5.681 9.753 16.066 # H2
190 64 1 0.41 3.900 -18.826 7.303 # H1
191 64 2 -0.82 3.374 -19.297 8.022 # O
192 64 1 0.41 3.516 -20.295 7.870 # H2
193 65 1 0.41 14.013 -9.920 3.857 # H1
194 65 2 -0.82 14.866 -10.373 3.480 # O
195 65 1 0.41 15.353 -9.778 2.820 # H2
196 66 1 0.41 9.215 -19.154 18.780 # H1
197 66 2 -0.82 8.256 -19.474 18.633 # O
198 66 1 0.41 7.740 -18.872 17.997 # H2
199 67 1 0.41 -15.450 -6.861 -12.256 # H1
200 67 2 -0.82 -15.646 -6.250 -13.081 # O
201 67 1 0.41 -15.725 -5.258 -12.780 # H2
202 68 1 0.41 8.059 10.733 1.216 # H1
203 68 2 -0.82 7.677 10.942 2.127 # O
204 68 1 0.41 7.132 10.098 2.399 # H2
205 69 1 0.41 -13.655 15.688 16.363 # H1
206 69 2 -0.82 -13.812 15.917 17.349 # O
207 69 1 0.41 -14.597 15.398 17.785 # H2
208 70 1 0.41 -1.195 0.194 15.009 # H1
209 70 2 -0.82 -1.556 -0.678 15.408 # O
210 70 1 0.41 -1.079 -1.460 14.995 # H2
211 71 1 0.41 17.296 -8.019 3.511 # H1
212 71 2 -0.82 17.029 -7.274 2.829 # O
213 71 1 0.41 17.224 -6.398 3.214 # H2
214 72 1 0.41 6.201 8.445 -7.471 # H1
215 72 2 -0.82 5.636 8.625 -8.301 # O
216 72 1 0.41 5.360 7.747 -8.717 # H2
217 73 1 0.41 -10.120 0.832 7.926 # H1
218 73 2 -0.82 -9.870 1.145 7.015 # O
219 73 1 0.41 -10.251 0.523 6.353 # H2
220 74 1 0.41 -20.772 -9.881 -14.476 # H1
221 74 2 -0.82 -19.963 -9.912 -13.847 # O
222 74 1 0.41 -19.547 -10.826 -13.846 # H2
223 75 1 0.41 5.200 19.180 7.509 # H1
224 75 2 -0.82 4.464 19.051 8.256 # O
225 75 1 0.41 4.433 18.079 8.602 # H2
226 76 1 0.41 5.493 -12.087 10.923 # H1
227 76 2 -0.82 4.930 -12.655 10.308 # O
228 76 1 0.41 3.963 -12.723 10.652 # H2
229 77 1 0.41 -16.254 1.218 16.750 # H1
230 77 2 -0.82 -16.823 2.023 16.481 # O
231 77 1 0.41 -16.429 2.922 16.684 # H2
232 78 1 0.41 15.432 -16.203 -13.530 # H1
233 78 2 -0.82 16.163 -16.271 -14.224 # O
234 78 1 0.41 15.864 -16.585 -15.186 # H2
235 79 1 0.41 8.012 -2.349 -1.844 # H1
236 79 2 -0.82 7.266 -1.922 -1.313 # O
237 79 1 0.41 6.456 -2.152 -1.912 # H2
238 80 1 0.41 20.910 11.509 12.577 # H1
239 80 2 -0.82 21.363 10.823 11.949 # O
240 80 1 0.41 22.045 11.267 11.298 # H2
241 81 1 0.41 10.845 -19.111 20.725 # H1
242 81 2 -0.82 10.780 -18.945 21.743 # O
243 81 1 0.41 9.785 -18.929 22.009 # H2
244 82 1 0.41 -7.665 7.456 -11.644 # H1
245 82 2 -0.82 -6.816 7.541 -11.053 # O
246 82 1 0.41 -6.625 8.522 -10.801 # H2
247 83 1 0.41 -15.233 -17.925 9.254 # H1
248 83 2 -0.82 -16.031 -18.558 9.303 # O
249 83 1 0.41 -16.815 -18.015 9.680 # H2
250 84 1 0.41 18.166 -17.749 18.753 # H1
251 84 2 -0.82 17.659 -18.456 18.227 # O
252 84 1 0.41 18.307 -18.798 17.535 # H2
253 85 1 0.41 -2.237 10.265 16.786 # H1
254 85 2 -0.82 -2.988 10.939 17.026 # O
255 85 1 0.41 -3.956 10.560 16.968 # H2
256 86 1 0.41 -19.849 -0.032 -17.909 # H1
257 86 2 -0.82 -19.367 -0.877 -17.573 # O
258 86 1 0.41 -19.334 -0.909 -16.564 # H2
259 87 1 0.41 -11.858 -14.445 21.436 # H1
260 87 2 -0.82 -10.942 -14.859 21.358 # O
261 87 1 0.41 -10.231 -14.140 21.547 # H2
262 88 1 0.41 -19.617 -18.673 -14.488 # H1
263 88 2 -0.82 -20.489 -18.816 -13.994 # O
264 88 1 0.41 -20.228 -18.779 -13.004 # H2
265 89 1 0.41 -13.327 2.006 18.228 # H1
266 89 2 -0.82 -13.540 1.308 18.925 # O
267 89 1 0.41 -14.061 0.527 18.553 # H2
268 90 1 0.41 -10.475 1.406 10.036 # H1
269 90 2 -0.82 -10.596 2.263 9.511 # O
270 90 1 0.41 -9.784 2.902 9.518 # H2
271 91 1 0.41 4.750 -18.485 -4.236 # H1
272 91 2 -0.82 4.203 -18.632 -3.377 # O
273 91 1 0.41 4.799 -18.550 -2.561 # H2
274 92 1 0.41 1.978 -21.915 -22.178 # H1
275 92 2 -0.82 1.965 -21.144 -21.531 # O
276 92 1 0.41 2.729 -21.020 -20.858 # H2
277 93 1 0.41 -0.550 -4.294 11.175 # H1
278 93 2 -0.82 -0.890 -3.513 11.766 # O
279 93 1 0.41 -0.408 -2.669 11.438 # H2
280 94 1 0.41 11.216 -3.813 -18.158 # H1
281 94 2 -0.82 10.834 -3.248 -18.942 # O
282 94 1 0.41 10.874 -2.250 -18.724 # H2
283 95 1 0.41 2.441 -0.976 -7.310 # H1
284 95 2 -0.82 1.501 -1.181 -6.981 # O
285 95 1 0.41 1.239 -0.671 -6.119 # H2
286 96 1 0.41 10.134 -18.885 -11.807 # H1
287 96 2 -0.82 9.514 -18.494 -12.508 # O
288 96 1 0.41 9.020 -17.651 -12.170 # H2
289 97 1 0.41 11.665 -0.732 -16.748 # H1
290 97 2 -0.82 11.326 -0.820 -17.708 # O
291 97 1 0.41 11.714 -0.020 -18.229 # H2
292 98 1 0.41 -17.915 21.973 13.763 # H1
293 98 2 -0.82 -17.509 21.123 14.144 # O
294 98 1 0.41 -18.084 20.782 14.911 # H2
295 99 1 0.41 20.330 -5.686 -20.362 # H1
296 99 2 -0.82 20.412 -6.018 -21.320 # O
297 99 1 0.41 19.833 -6.846 -21.540 # H2
298 100 1 0.41 -21.456 -10.807 -6.817 # H1
299 100 2 -0.82 -20.668 -10.223 -6.602 # O
300 100 1 0.41 -20.217 -9.924 -7.488 # H2
301 101 1 0.41 4.485 -6.364 -19.288 # H1
302 101 2 -0.82 4.588 -5.791 -20.131 # O
303 101 1 0.41 3.722 -5.754 -20.648 # H2
304 102 1 0.41 16.757 -14.581 -13.726 # H1
305 102 2 -0.82 17.196 -13.848 -13.173 # O
306 102 1 0.41 17.799 -13.263 -13.741 # H2
307 103 1 0.41 1.367 6.407 1.499 # H1
308 103 2 -0.82 1.618 5.448 1.246 # O
309 103 1 0.41 1.865 5.426 0.296 # H2
310 104 1 0.41 4.315 3.677 -0.825 # H1
311 104 2 -0.82 4.288 4.671 -0.946 # O
312 104 1 0.41 4.559 5.275 -0.124 # H2
313 105 1 0.41 -17.264 -14.747 -16.743 # H1
314 105 2 -0.82 -17.470 -14.025 -16.059 # O
315 105 1 0.41 -17.169 -13.134 -16.409 # H2
316 106 1 0.41 21.719 -17.947 1.973 # H1
317 106 2 -0.82 21.055 -18.682 1.775 # O
318 106 1 0.41 21.036 -18.855 0.772 # H2
319 107 1 0.41 -21.658 -1.155 -20.910 # H1
320 107 2 -0.82 -21.185 -0.542 -21.551 # O
321 107 1 0.41 -20.302 -0.256 -21.118 # H2
322 108 1 0.41 -5.527 1.460 -14.630 # H1
323 108 2 -0.82 -6.149 0.708 -14.906 # O
324 108 1 0.41 -6.911 0.603 -14.244 # H2
325 109 1 0.41 -3.917 -6.356 -13.665 # H1
326 109 2 -0.82 -4.403 -7.248 -13.879 # O
327 109 1 0.41 -5.114 -7.172 -14.592 # H2
328 110 1 0.41 1.447 11.262 -8.613 # H1
329 110 2 -0.82 2.328 10.919 -9.020 # O
330 110 1 0.41 2.788 10.269 -8.379 # H2
331 111 1 0.41 -11.492 -9.292 -11.516 # H1
332 111 2 -0.82 -11.570 -9.708 -12.463 # O
333 111 1 0.41 -12.202 -9.170 -13.043 # H2
334 112 1 0.41 8.321 -10.461 -19.866 # H1
335 112 2 -0.82 7.978 -9.763 -20.512 # O
336 112 1 0.41 8.725 -9.195 -20.905 # H2
337 113 1 0.41 8.580 -18.134 16.257 # H1
338 113 2 -0.82 7.571 -18.019 16.284 # O
339 113 1 0.41 7.269 -17.449 15.476 # H2
340 114 1 0.41 0.765 -6.872 21.479 # H1
341 114 2 -0.82 -0.188 -6.815 21.078 # O
342 114 1 0.41 -0.808 -7.307 21.698 # H2
343 115 1 0.41 19.222 5.216 -13.784 # H1
344 115 2 -0.82 18.793 5.615 -14.600 # O
345 115 1 0.41 18.036 6.261 -14.312 # H2
346 116 1 0.41 9.967 12.753 8.121 # H1
347 116 2 -0.82 10.085 11.755 7.953 # O
348 116 1 0.41 9.590 11.500 7.085 # H2
349 117 1 0.41 16.039 21.218 -7.523 # H1
350 117 2 -0.82 16.834 21.786 -7.874 # O
351 117 1 0.41 16.458 22.739 -7.976 # H2
352 118 1 0.41 10.116 13.758 14.397 # H1
353 118 2 -0.82 9.262 13.739 13.857 # O
354 118 1 0.41 9.343 14.031 12.881 # H2
355 119 1 0.41 7.910 -4.527 -15.592 # H1
356 119 2 -0.82 8.768 -4.134 -15.976 # O
357 119 1 0.41 8.721 -4.264 -16.982 # H2
358 120 1 0.41 5.090 -11.777 0.101 # H1
359 120 2 -0.82 5.333 -12.260 0.990 # O
360 120 1 0.41 6.177 -11.885 1.470 # H2
361 121 1 0.41 -0.565 18.709 6.649 # H1
362 121 2 -0.82 -1.544 18.655 6.355 # O
363 121 1 0.41 -2.123 18.016 6.893 # H2
364 122 1 0.41 13.926 17.543 9.695 # H1
365 122 2 -0.82 14.658 17.842 10.322 # O
366 122 1 0.41 14.538 18.794 10.606 # H2
367 123 1 0.41 -6.075 11.909 -21.188 # H1
368 123 2 -0.82 -6.882 12.316 -20.700 # O
369 123 1 0.41 -6.578 12.539 -19.777 # H2
370 124 1 0.41 -8.663 19.132 9.306 # H1
371 124 2 -0.82 -8.229 18.243 9.101 # O
372 124 1 0.41 -7.309 18.382 8.747 # H2
373 125 1 0.41 6.759 -0.248 18.106 # H1
374 125 2 -0.82 6.596 -0.834 17.320 # O
375 125 1 0.41 5.785 -0.523 16.745 # H2
376 126 1 0.41 -0.387 -12.368 16.639 # H1
377 126 2 -0.82 0.279 -12.474 15.876 # O
378 126 1 0.41 -0.163 -13.063 15.199 # H2
379 127 1 0.41 -2.862 10.264 -12.356 # H1
380 127 2 -0.82 -3.171 9.866 -13.209 # O
381 127 1 0.41 -2.636 9.031 -13.442 # H2
382 128 1 0.41 16.697 -13.208 -6.155 # H1
383 128 2 -0.82 16.836 -12.225 -5.903 # O
384 128 1 0.41 17.767 -11.996 -5.543 # H2
385 129 1 0.41 15.442 15.914 3.345 # H1
386 129 2 -0.82 16.122 15.586 2.656 # O
387 129 1 0.41 16.416 14.639 2.915 # H2
388 130 1 0.41 15.595 4.430 1.937 # H1
389 130 2 -0.82 16.131 5.052 2.506 # O
390 130 1 0.41 15.694 5.350 3.376 # H2
391 131 1 0.41 -2.430 -14.164 3.449 # H1
392 131 2 -0.82 -3.410 -14.324 3.168 # O
393 131 1 0.41 -3.469 -15.075 2.483 # H2
394 132 1 0.41 -4.215 -10.107 -13.285 # H1
395 132 2 -0.82 -4.845 -9.950 -12.525 # O
396 132 1 0.41 -4.603 -9.161 -11.966 # H2
397 133 1 0.41 -6.651 -1.862 -10.198 # H1
398 133 2 -0.82 -6.307 -1.511 -9.289 # O
399 133 1 0.41 -5.383 -1.866 -9.011 # H2
400 134 1 0.41 -12.094 -3.202 3.239 # H1
401 134 2 -0.82 -11.685 -2.265 3.131 # O
402 134 1 0.41 -11.703 -1.940 2.160 # H2
403 135 1 0.41 21.869 -5.851 -6.222 # H1
404 135 2 -0.82 21.818 -6.152 -5.226 # O
405 135 1 0.41 22.443 -6.948 -5.150 # H2
406 136 1 0.41 -9.886 7.590 16.034 # H1
407 136 2 -0.82 -10.266 6.658 15.969 # O
408 136 1 0.41 -10.670 6.367 16.847 # H2
409 137 1 0.41 -4.078 18.245 -6.527 # H1
410 137 2 -0.82 -3.415 18.228 -5.753 # O
411 137 1 0.41 -3.812 18.694 -4.950 # H2
412 138 1 0.41 9.015 10.170 13.860 # H1
413 138 2 -0.82 8.342 9.816 13.161 # O
414 138 1 0.41 7.859 10.579 12.715 # H2
415 139 1 0.41 -1.490 -6.442 14.456 # H1
416 139 2 -0.82 -2.462 -6.351 14.190 # O
417 139 1 0.41 -2.773 -5.371 14.347 # H2
418 140 1 0.41 13.178 -5.558 0.063 # H1
419 140 2 -0.82 12.879 -4.904 0.744 # O
420 140 1 0.41 13.655 -4.383 1.169 # H2
421 141 1 0.41 1.602 5.012 -15.542 # H1
422 141 2 -0.82 2.335 5.049 -16.231 # O
423 141 1 0.41 1.852 4.867 -17.124 # H2
424 142 1 0.41 -2.998 -9.807 -15.559 # H1
425 142 2 -0.82 -3.416 -9.876 -16.502 # O
426 142 1 0.41 -4.433 -10.013 -16.521 # H2
427 143 1 0.41 -4.472 -9.034 18.575 # H1
428 143 2 -0.82 -3.859 -8.435 18.018 # O
429 143 1 0.41 -4.325 -8.061 17.170 # H2
430 144 1 0.41 -13.706 1.798 -0.107 # H1
431 144 2 -0.82 -13.808 1.280 -0.978 # O
432 144 1 0.41 -13.144 1.601 -1.700 # H2
433 145 1 0.41 14.846 16.929 -10.208 # H1
434 145 2 -0.82 14.886 17.907 -9.920 # O
435 145 1 0.41 15.765 18.169 -9.446 # H2
436 146 1 0.41 18.827 13.862 10.302 # H1
437 146 2 -0.82 17.837 13.915 10.392 # O
438 146 1 0.41 17.462 14.876 10.521 # H2
439 147 1 0.41 7.184 -0.082 -12.711 # H1
440 147 2 -0.82 7.903 -0.438 -12.067 # O
441 147 1 0.41 8.605 -0.993 -12.593 # H2
442 148 1 0.41 18.120 -19.137 15.498 # H1
443 148 2 -0.82 18.878 -19.782 15.737 # O
444 148 1 0.41 19.768 -19.264 15.834 # H2
445 149 1 0.41 -4.576 -7.220 3.139 # H1
446 149 2 -0.82 -4.197 -6.263 2.995 # O
447 149 1 0.41 -4.755 -5.599 3.492 # H2
448 150 1 0.41 -9.404 -19.833 -13.727 # H1
449 150 2 -0.82 -8.826 -19.811 -12.890 # O
450 150 1 0.41 -7.827 -19.853 -13.038 # H2
451 151 1 0.41 16.676 -3.154 -10.506 # H1
452 151 2 -0.82 16.407 -3.849 -11.226 # O
453 151 1 0.41 16.432 -4.811 -10.952 # H2
454 152 1 0.41 14.013 12.480 1.640 # H1
455 152 2 -0.82 13.869 13.399 2.062 # O
456 152 1 0.41 14.370 13.334 2.947 # H2
457 153 1 0.41 8.998 -12.161 -19.195 # H1
458 153 2 -0.82 9.482 -11.637 -18.462 # O
459 153 1 0.41 10.471 -11.405 -18.646 # H2
460 154 1 0.41 1.421 16.204 18.723 # H1
461 154 2 -0.82 2.090 16.871 18.295 # O
462 154 1 0.41 1.667 17.331 17.488 # H2
463 155 1 0.41 8.415 -18.197 -6.586 # H1
464 155 2 -0.82 9.442 -18.248 -6.469 # O
465 155 1 0.41 9.639 -18.812 -5.660 # H2
466 156 1 0.41 -20.784 14.891 -22.319 # H1
467 156 2 -0.82 -21.307 15.572 -21.727 # O
468 156 1 0.41 -21.147 16.490 -22.111 # H2
469 157 1 0.41 11.329 21.299 4.835 # H1
470 157 2 -0.82 11.150 20.342 4.626 # O
471 157 1 0.41 11.947 19.731 4.858 # H2
472 158 1 0.41 -14.859 11.660 0.748 # H1
473 158 2 -0.82 -14.634 11.304 1.680 # O
474 158 1 0.41 -14.100 10.443 1.595 # H2
475 159 1 0.41 -14.195 -4.039 -21.023 # H1
476 159 2 -0.82 -14.701 -4.299 -21.864 # O
477 159 1 0.41 -15.370 -5.069 -21.627 # H2
478 160 1 0.41 -17.860 -4.462 8.008 # H1
479 160 2 -0.82 -17.873 -3.533 7.564 # O
480 160 1 0.41 -16.902 -3.246 7.441 # H2
481 161 1 0.41 -10.782 -12.380 16.842 # H1
482 161 2 -0.82 -9.838 -12.697 16.526 # O
483 161 1 0.41 -9.096 -12.004 16.621 # H2
484 162 1 0.41 6.025 4.696 -6.607 # H1
485 162 2 -0.82 6.708 4.289 -5.981 # O
486 162 1 0.41 6.481 4.564 -5.022 # H2
487 163 1 0.41 3.560 19.068 0.821 # H1
488 163 2 -0.82 3.292 19.508 -0.064 # O
489 163 1 0.41 2.794 20.372 0.168 # H2
490 164 1 0.41 16.854 -0.515 -10.303 # H1
491 164 2 -0.82 16.528 -1.330 -9.825 # O
492 164 1 0.41 15.630 -1.145 -9.391 # H2
493 165 1 0.41 8.149 4.253 -3.717 # H1
494 165 2 -0.82 8.874 3.530 -3.596 # O
495 165 1 0.41 9.186 3.131 -4.469 # H2
496 166 1 0.41 21.253 10.286 -4.971 # H1
497 166 2 -0.82 21.841 9.906 -5.719 # O
498 166 1 0.41 21.299 9.408 -6.423 # H2
499 167 1 0.41 -18.705 -9.864 -9.757 # H1
500 167 2 -0.82 -18.736 -9.865 -8.722 # O
501 167 1 0.41 -18.555 -8.898 -8.407 # H2
502 168 1 0.41 -2.056 -11.532 -6.469 # H1
503 168 2 -0.82 -2.260 -10.530 -6.289 # O
504 168 1 0.41 -2.069 -10.211 -5.366 # H2
505 169 1 0.41 -17.294 20.402 -6.228 # H1
506 169 2 -0.82 -17.065 20.019 -7.119 # O
507 169 1 0.41 -16.058 20.115 -7.355 # H2
508 170 1 0.41 -11.239 21.107 -12.503 # H1
509 170 2 -0.82 -12.210 21.256 -12.191 # O
510 170 1 0.41 -12.773 20.395 -12.136 # H2
511 171 1 0.41 20.554 5.578 -18.944 # H1
512 171 2 -0.82 21.455 5.163 -19.090 # O
513 171 1 0.41 21.451 4.317 -18.549 # H2
514 172 1 0.41 20.163 -9.098 -9.336 # H1
515 172 2 -0.82 19.902 -9.351 -10.274 # O
516 172 1 0.41 20.430 -10.211 -10.381 # H2
517 173 1 0.41 7.480 2.427 16.643 # H1
518 173 2 -0.82 7.221 2.598 15.661 # O
519 173 1 0.41 6.338 3.073 15.607 # H2
520 174 1 0.41 -12.819 -2.498 -15.397 # H1
521 174 2 -0.82 -13.142 -2.341 -14.429 # O
522 174 1 0.41 -12.854 -3.106 -13.842 # H2
523 175 1 0.41 -13.256 2.146 -14.576 # H1
524 175 2 -0.82 -13.401 3.036 -15.066 # O
525 175 1 0.41 -14.370 3.172 -15.312 # H2
526 176 1 0.41 10.244 -5.862 -10.794 # H1
527 176 2 -0.82 9.781 -4.982 -11.035 # O
528 176 1 0.41 8.773 -4.992 -10.984 # H2
529 177 1 0.41 -14.910 -22.789 -16.247 # H1
530 177 2 -0.82 -14.798 -21.791 -16.349 # O
531 177 1 0.41 -14.136 -21.392 -15.674 # H2
532 178 1 0.41 -21.204 -0.313 19.560 # H1
533 178 2 -0.82 -21.419 0.570 19.119 # O
534 178 1 0.41 -20.528 0.930 18.780 # H2
535 179 1 0.41 -22.246 4.566 17.227 # H1
536 179 2 -0.82 -21.628 5.225 16.760 # O
537 179 1 0.41 -21.575 6.073 17.366 # H2
538 180 1 0.41 10.840 16.585 18.867 # H1
539 180 2 -0.82 10.875 17.508 19.358 # O
540 180 1 0.41 10.506 17.509 20.312 # H2
541 181 1 0.41 20.876 20.374 -19.541 # H1
542 181 2 -0.82 20.814 21.378 -19.470 # O
543 181 1 0.41 20.262 21.577 -18.660 # H2
544 182 1 0.41 -10.489 -19.514 -7.461 # H1
545 182 2 -0.82 -10.492 -20.171 -8.257 # O
546 182 1 0.41 -9.762 -20.010 -8.937 # H2
547 183 1 0.41 3.213 -18.053 -18.191 # H1
548 183 2 -0.82 2.288 -18.519 -18.089 # O
549 183 1 0.41 2.249 -19.461 -17.654 # H2
550 184 1 0.41 -15.045 21.096 14.694 # H1
551 184 2 -0.82 -14.818 21.515 15.606 # O
552 184 1 0.41 -13.815 21.531 15.673 # H2
553 185 1 0.41 16.889 12.833 -10.233 # H1
554 185 2 -0.82 16.760 13.477 -9.446 # O
555 185 1 0.41 17.645 13.853 -9.144 # H2
556 186 1 0.41 3.529 18.358 3.449 # H1
557 186 2 -0.82 4.152 18.502 2.652 # O
558 186 1 0.41 4.581 17.672 2.279 # H2
559 187 1 0.41 5.313 -8.786 -10.774 # H1
560 187 2 -0.82 5.295 -7.817 -11.044 # O
561 187 1 0.41 5.664 -7.183 -10.313 # H2
562 188 1 0.41 -16.343 -1.631 -9.190 # H1
563 188 2 -0.82 -16.057 -2.391 -9.813 # O
564 188 1 0.41 -15.036 -2.491 -9.962 # H2
565 189 1 0.41 4.321 3.523 3.733 # H1
566 189 2 -0.82 3.706 2.828 4.206 # O
567 189 1 0.41 2.769 2.897 3.851 # H2
568 190 1 0.41 17.023 -13.585 15.763 # H1
569 190 2 -0.82 17.351 -14.310 16.440 # O
570 190 1 0.41 18.271 -14.690 16.255 # H2
571 191 1 0.41 10.292 4.852 10.429 # H1
572 191 2 -0.82 10.725 5.698 10.740 # O
573 191 1 0.41 11.517 5.300 11.274 # H2
574 192 1 0.41 17.419 -5.154 12.490 # H1
575 192 2 -0.82 17.516 -5.935 11.797 # O
576 192 1 0.41 18.396 -6.432 11.836 # H2
577 193 1 0.41 19.212 -3.396 13.017 # H1
578 193 2 -0.82 19.705 -2.764 12.406 # O
579 193 1 0.41 20.444 -3.159 11.783 # H2
580 194 1 0.41 -3.793 19.470 -2.743 # H1
581 194 2 -0.82 -4.333 19.344 -3.593 # O
582 194 1 0.41 -5.035 20.026 -3.783 # H2
583 195 1 0.41 18.748 15.267 5.031 # H1
584 195 2 -0.82 19.645 14.855 5.238 # O
585 195 1 0.41 20.376 15.508 5.561 # H2
586 196 1 0.41 -10.319 10.726 7.125 # H1
587 196 2 -0.82 -10.395 9.846 7.630 # O
588 196 1 0.41 -11.189 9.279 7.269 # H2
589 197 1 0.41 17.647 2.235 10.348 # H1
590 197 2 -0.82 18.003 3.199 10.461 # O
591 197 1 0.41 18.665 3.491 9.721 # H2
592 198 1 0.41 -16.285 17.476 -17.865 # H1
593 198 2 -0.82 -16.263 18.503 -17.855 # O
594 198 1 0.41 -16.071 18.834 -16.904 # H2
595 199 1 0.41 21.888 10.223 17.006 # H1
596 199 2 -0.82 21.477 10.872 17.669 # O
597 199 1 0.41 20.626 11.264 17.269 # H2
598 200 1 0.41 -2.276 9.336 3.489 # H1
599 200 2 -0.82 -2.001 9.862 4.301 # O
600 200 1 0.41 -1.930 9.237 5.084 # H2
601 201 1 0.41 4.268 10.449 22.114 # H1
602 201 2 -0.82 4.190 10.027 21.165 # O
603 201 1 0.41 3.886 9.058 21.150 # H2
604 202 1 0.41 19.709 -19.568 -9.285 # H1
605 202 2 -0.82 20.151 -20.244 -9.880 # O
606 202 1 0.41 19.587 -21.138 -9.912 # H2
607 203 1 0.41 16.379 0.305 18.630 # H1
608 203 2 -0.82 16.235 0.441 17.627 # O
609 203 1 0.41 17.060 0.232 17.062 # H2
610 204 1 0.41 7.904 16.236 5.581 # H1
611 204 2 -0.82 8.179 15.268 5.711 # O
612 204 1 0.41 8.477 14.791 4.888 # H2
613 205 1 0.41 -10.898 -13.595 -18.876 # H1
614 205 2 -0.82 -11.660 -14.237 -19.085 # O
615 205 1 0.41 -12.509 -13.706 -19.283 # H2
616 206 1 0.41 -3.706 -21.108 -15.182 # H1
617 206 2 -0.82 -3.685 -20.500 -14.367 # O
618 206 1 0.41 -2.782 -20.663 -13.864 # H2
619 207 1 0.41 -17.509 -21.469 0.751 # H1
620 207 2 -0.82 -17.132 -21.030 -0.096 # O
621 207 1 0.41 -17.949 -20.839 -0.675 # H2
622 208 1 0.41 -0.424 -12.251 19.861 # H1
623 208 2 -0.82 -0.123 -13.239 19.791 # O
624 208 1 0.41 0.838 -13.344 19.423 # H2
625 209 1 0.41 -15.689 -8.888 19.389 # H1
626 209 2 -0.82 -16.019 -9.681 19.957 # O
627 209 1 0.41 -16.994 -9.526 20.211 # H2
628 210 1 0.41 4.342 2.333 -5.942 # H1
629 210 2 -0.82 3.625 2.907 -5.572 # O
630 210 1 0.41 3.036 3.401 -6.242 # H2
631 211 1 0.41 -2.592 -8.121 14.514 # H1
632 211 2 -0.82 -2.556 -9.115 14.731 # O
633 211 1 0.41 -2.861 -9.648 13.922 # H2
634 212 1 0.41 -8.485 -11.268 2.087 # H1
635 212 2 -0.82 -7.753 -10.581 2.231 # O
636 212 1 0.41 -7.058 -10.968 2.862 # H2
637 213 1 0.41 17.811 -5.575 19.646 # H1
638 213 2 -0.82 17.762 -4.747 20.232 # O
639 213 1 0.41 17.876 -3.906 19.628 # H2
640 214 1 0.41 13.414 -4.836 21.736 # H1
641 214 2 -0.82 12.455 -5.214 21.679 # O
642 214 1 0.41 12.356 -5.931 20.918 # H2
643 215 1 0.41 7.003 16.598 1.167 # H1
644 215 2 -0.82 6.119 17.099 1.025 # O
645 215 1 0.41 5.813 17.074 0.033 # H2
646 216 1 0.41 16.271 -10.779 -5.496 # H1
647 216 2 -0.82 16.210 -9.735 -5.461 # O
648 216 1 0.41 15.438 -9.396 -6.020 # H2
649 217 1 0.41 -16.388 6.796 14.545 # H1
650 217 2 -0.82 -16.821 6.044 15.026 # O
651 217 1 0.41 -16.087 5.517 15.428 # H2
652 218 1 0.41 -4.490 -20.082 20.289 # H1
653 218 2 -0.82 -5.266 -19.975 20.939 # O
654 218 1 0.41 -4.984 -20.496 21.770 # H2
655 219 1 0.41 15.771 8.842 9.222 # H1
656 219 2 -0.82 16.523 8.244 9.496 # O
657 219 1 0.41 17.294 8.479 8.882 # H2
658 220 1 0.41 4.290 -0.936 10.775 # H1
659 220 2 -0.82 4.588 0.060 10.774 # O
660 220 1 0.41 5.203 0.235 11.590 # H2
661 221 1 0.41 21.518 -11.336 -12.704 # H1
662 221 2 -0.82 21.451 -11.161 -11.675 # O
663 221 1 0.41 20.881 -11.927 -11.303 # H2
664 222 1 0.41 -16.961 -21.203 11.441 # H1
665 222 2 -0.82 -16.838 -21.353 10.462 # O
666 222 1 0.41 -16.751 -20.440 10.001 # H2
667 223 1 0.41 -19.922 -8.825 13.621 # H1
668 223 2 -0.82 -19.156 -9.447 13.338 # O
669 223 1 0.41 -18.287 -9.047 13.018 # H2
670 224 1 0.41 -8.967 14.400 -21.369 # H1
671 224 2 -0.82 -9.295 13.447 -21.236 # O
672 224 1 0.41 -8.440 12.853 -21.187 # H2
673 225 1 0.41 -11.089 -15.765 -19.814 # H1
674 225 2 -0.82 -10.693 -16.579 -20.318 # O
675 225 1 0.41 -10.528 -16.219 -21.269 # H2
676 226 1 0.41 -1.323 7.478 -11.047 # H1
677 226 2 -0.82 -2.201 7.656 -11.563 # O
678 226 1 0.41 -2.044 7.626 -12.606 # H2
679 227 1 0.41 -9.035 10.064 -10.364 # H1
680 227 2 -0.82 -9.908 10.429 -10.667 # O
681 227 1 0.41 -10.652 10.167 -10.012 # H2
682 228 1 0.41 19.553 -18.884 8.494 # H1
683 228 2 -0.82 20.424 -19.199 8.977 # O
684 228 1 0.41 20.527 -18.732 9.883 # H2
685 229 1 0.41 19.855 21.560 3.202 # H1
686 229 2 -0.82 18.971 21.890 2.792 # O
687 229 1 0.41 19.164 21.947 1.794 # H2
688 230 1 0.41 -16.501 -11.781 -21.452 # H1
689 230 2 -0.82 -15.944 -11.881 -20.594 # O
690 230 1 0.41 -16.544 -11.567 -19.823 # H2
691 231 1 0.41 -7.909 -9.919 -8.766 # H1
692 231 2 -0.82 -7.761 -10.752 -9.313 # O
693 231 1 0.41 -6.805 -11.123 -9.104 # H2
694 232 1 0.41 12.932 5.964 0.198 # H1
695 232 2 -0.82 13.331 5.615 -0.678 # O
696 232 1 0.41 12.609 5.169 -1.225 # H2
697 233 1 0.41 16.728 7.397 -10.448 # H1
698 233 2 -0.82 16.957 8.233 -9.939 # O
699 233 1 0.41 16.620 8.335 -8.971 # H2
700 234 1 0.41 8.660 -20.148 -3.198 # H1
701 234 2 -0.82 7.930 -20.354 -2.535 # O
702 234 1 0.41 7.656 -19.441 -2.161 # H2
703 235 1 0.41 -10.744 6.616 -16.152 # H1
704 235 2 -0.82 -9.796 6.199 -16.218 # O
705 235 1 0.41 -9.104 6.941 -16.231 # H2
706 236 1 0.41 -19.744 18.432 -16.741 # H1
707 236 2 -0.82 -20.418 17.843 -16.234 # O
708 236 1 0.41 -21.016 18.394 -15.608 # H2
709 237 1 0.41 -16.494 4.995 -2.300 # H1
710 237 2 -0.82 -16.089 5.913 -2.027 # O
711 237 1 0.41 -15.095 5.818 -1.863 # H2
712 238 1 0.41 9.532 -5.670 5.859 # H1
713 238 2 -0.82 9.970 -5.241 6.673 # O
714 238 1 0.41 9.216 -5.012 7.290 # H2
715 239 1 0.41 -13.449 15.321 11.948 # H1
716 239 2 -0.82 -13.400 16.339 11.712 # O
717 239 1 0.41 -13.797 16.556 10.807 # H2
718 240 1 0.41 10.279 12.383 2.866 # H1
719 240 2 -0.82 10.635 11.508 3.196 # O
720 240 1 0.41 9.889 10.930 3.577 # H2
721 241 1 0.41 -18.166 14.642 6.289 # H1
722 241 2 -0.82 -18.521 15.345 5.632 # O
723 241 1 0.41 -17.911 15.545 4.840 # H2
724 242 1 0.41 -12.833 7.928 5.480 # H1
725 242 2 -0.82 -12.343 8.383 6.249 # O
726 242 1 0.41 -13.031 8.771 6.921 # H2
727 243 1 0.41 3.206 16.399 12.306 # H1
728 243 2 -0.82 4.221 16.470 12.110 # O