LAMMPS data file
# Generated by Playmol on 3-Mar-2020 at 14:16:56

2 atom types
1 bond types
1 angle types

3000 atoms
2000 bonds
1000 angles

-15.754 15.754 xlo xhi
-15.754 15.754 ylo yhi
-15.754 15.754 zlo zhi

Masses

1 1.00790000 # HW
2 15.9994001 # OW

# Elements: H O

Pair Coeffs # lj/cut/coul/long

1 0.0000 0.0000 # HW
2 0.1554252 3.165492 # OW

Bond Coeffs # harmonic

1 529.5810 1.012 # HW OW

Angle Coeffs # harmonic

1 37.9500 113.24 # HW OW HW

Atoms

1 1 1 0.41 4.247 12.077 -2.947 # H1
2 1 2 -0.82 3.855 12.288 -2.015 # O
3 1 1 0.41 3.523 11.451 -1.563 # H2
4 2 1 0.41 -15.720 14.808 -11.477 # H1
5 2 2 -0.82 -15.074 15.509 -11.878 # O
6 2 1 0.41 -14.155 15.519 -11.416 # H2
7 3 1 0.41 12.598 -6.281 -5.925 # H1
8 3 2 -0.82 12.931 -7.232 -5.768 # O
9 3 1 0.41 12.217 -7.960 -5.696 # H2
10 4 1 0.41 9.925 -2.091 -4.984 # H1
11 4 2 -0.82 10.621 -2.749 -4.655 # O
12 4 1 0.41 10.319 -3.187 -3.791 # H2
13 5 1 0.41 11.727 -12.301 -11.864 # H1
14 5 2 -0.82 11.917 -11.588 -12.552 # O
15 5 1 0.41 11.126 -11.403 -13.167 # H2
16 6 1 0.41 -1.832 -12.737 -2.026 # H1
17 6 2 -0.82 -1.452 -11.791 -1.929 # O
18 6 1 0.41 -0.984 -11.523 -2.807 # H2
19 7 1 0.41 10.783 13.508 9.779 # H1
20 7 2 -0.82 10.427 12.957 10.563 # O
21 7 1 0.41 11.162 12.367 10.924 # H2
22 8 1 0.41 -8.000 -4.541 -7.433 # H1
23 8 2 -0.82 -8.673 -4.147 -6.760 # O
24 8 1 0.41 -9.267 -4.902 -6.408 # H2
25 9 1 0.41 -9.208 -14.495 -8.611 # H1
26 9 2 -0.82 -8.527 -14.860 -7.908 # O
27 9 1 0.41 -7.875 -14.149 -7.564 # H2
28 10 1 0.41 5.735 -11.500 7.715 # H1
29 10 2 -0.82 5.290 -12.401 7.578 # O
30 10 1 0.41 4.316 -12.203 7.724 # H2
31 11 1 0.41 8.037 -5.021 -7.943 # H1
32 11 2 -0.82 8.123 -5.999 -8.231 # O
33 11 1 0.41 8.577 -6.084 -9.117 # H2
34 12 1 0.41 1.228 -4.170 13.834 # H1
35 12 2 -0.82 2.077 -4.754 13.972 # O
36 12 1 0.41 2.660 -4.404 14.727 # H2
37 13 1 0.41 -12.754 -13.525 -1.753 # H1
38 13 2 -0.82 -13.022 -14.530 -1.816 # O
39 13 1 0.41 -12.167 -15.076 -1.875 # H2
40 14 1 0.41 -8.089 7.612 13.030 # H1
41 14 2 -0.82 -8.397 7.210 12.115 # O
42 14 1 0.41 -9.023 6.420 12.232 # H2
43 15 1 0.41 12.998 8.156 14.470 # H1
44 15 2 -0.82 12.205 8.367 15.039 # O
45 15 1 0.41 12.090 7.642 15.769 # H2
46 16 1 0.41 3.740 -9.065 2.992 # H1
47 16 2 -0.82 4.509 -8.884 3.661 # O
48 16 1 0.41 4.284 -9.318 4.576 # H2
49 17 1 0.41 -14.097 -3.289 -13.177 # H1
50 17 2 -0.82 -14.549 -3.958 -12.532 # O
51 17 1 0.41 -15.562 -3.761 -12.374 # H2
52 18 1 0.41 14.093 2.221 14.277 # H1
53 18 2 -0.82 14.427 1.486 13.665 # O
54 18 1 0.41 13.819 1.456 12.848 # H2
55 19 1 0.41 0.878 7.735 14.568 # H1
56 19 2 -0.82 1.102 7.248 13.688 # O
57 19 1 0.41 1.855 7.832 13.328 # H2
58 20 1 0.41 14.019 -14.361 14.536 # H1
59 20 2 -0.82 13.520 -15.145 14.065 # O
60 20 1 0.41 12.575 -14.942 13.824 # H2
61 21 1 0.41 1.718 -12.706 -8.073 # H1
62 21 2 -0.82 1.655 -13.627 -8.481 # O
63 21 1 0.41 2.599 -14.064 -8.470 # H2
64 22 1 0.41 8.365 2.528 0.821 # H1
65 22 2 -0.82 8.338 3.493 1.109 # O
66 22 1 0.41 8.271 4.169 0.332 # H2
67 23 1 0.41 12.052 13.112 14.612 # H1
68 23 2 -0.82 11.354 12.571 15.132 # O
69 23 1 0.41 10.755 13.237 15.648 # H2
70 24 1 0.41 -1.193 10.562 -4.540 # H1
71 24 2 -0.82 -0.954 10.665 -5.523 # O
72 24 1 0.41 -1.611 11.136 -6.139 # H2
73 25 1 0.41 11.592 -12.887 11.042 # H1
74 25 2 -0.82 10.775 -13.389 10.640 # O
75 25 1 0.41 10.279 -12.812 9.955 # H2
76 26 1 0.41 -11.065 14.416 -3.228 # H1
77 26 2 -0.82 -11.006 14.675 -2.254 # O
78 26 1 0.41 -11.252 13.974 -1.574 # H2
79 27 1 0.41 3.213 -6.182 0.172 # H1
80 27 2 -0.82 3.838 -5.474 -0.171 # O
81 27 1 0.41 4.272 -5.834 -1.020 # H2
82 28 1 0.41 -11.715 6.566 7.390 # H1
83 28 2 -0.82 -11.478 6.710 8.390 # O
84 28 1 0.41 -11.066 7.663 8.494 # H2
85 29 1 0.41 6.885 12.155 4.568 # H1
86 29 2 -0.82 7.154 11.217 4.287 # O
87 29 1 0.41 8.067 11.120 3.838 # H2
88 30 1 0.41 -15.493 1.492 -2.353 # H1
89 30 2 -0.82 -14.704 1.365 -1.762 # O
90 30 1 0.41 -14.782 0.493 -1.252 # H2
91 31 1 0.41 -11.897 4.207 5.934 # H1
92 31 2 -0.82 -11.847 3.263 6.306 # O
93 31 1 0.41 -11.692 3.278 7.338 # H2
94 32 1 0.41 5.973 -12.440 11.415 # H1
95 32 2 -0.82 5.128 -12.632 10.840 # O
96 32 1 0.41 5.121 -13.583 10.452 # H2
97 33 1 0.41 -5.314 -7.968 -2.965 # H1
98 33 2 -0.82 -6.265 -7.668 -2.717 # O
99 33 1 0.41 -6.966 -8.393 -2.822 # H2
100 34 1 0.41 11.126 -5.525 -4.363 # H1
101 34 2 -0.82 11.305 -5.969 -3.476 # O
102 34 1 0.41 11.303 -6.986 -3.544 # H2
103 35 1 0.41 10.719 12.022 1.351 # H1
104 35 2 -0.82 11.085 11.891 2.293 # O
105 35 1 0.41 10.550 11.187 2.834 # H2
106 36 1 0.41 -14.421 4.662 1.292 # H1
107 36 2 -0.82 -14.801 5.593 1.090 # O
108 36 1 0.41 -14.044 6.194 0.744 # H2
109 37 1 0.41 0.322 0.628 11.075 # H1
110 37 2 -0.82 1.125 0.424 10.534 # O
111 37 1 0.41 0.986 1.003 9.704 # H2
112 38 1 0.41 15.466 -4.859 13.497 # H1
113 38 2 -0.82 15.262 -5.017 12.498 # O
114 38 1 0.41 16.067 -5.084 11.922 # H2
115 39 1 0.41 -3.671 -11.149 1.434 # H1
116 39 2 -0.82 -3.148 -11.944 1.034 # O
117 39 1 0.41 -3.850 -12.677 0.732 # H2
118 40 1 0.41 -6.115 7.561 4.166 # H1
119 40 2 -0.82 -5.550 6.715 4.046 # O
120 40 1 0.41 -4.636 7.088 3.769 # H2
121 41 1 0.41 -2.415 -7.042 -3.530 # H1
122 41 2 -0.82 -1.795 -6.223 -3.564 # O
123 41 1 0.41 -0.974 -6.444 -4.134 # H2
124 42 1 0.41 -8.347 -3.256 -14.606 # H1
125 42 2 -0.82 -8.533 -2.639 -15.406 # O
126 42 1 0.41 -8.069 -1.759 -15.289 # H2
127 43 1 0.41 9.193 -1.558 15.138 # H1
128 43 2 -0.82 8.542 -2.104 15.705 # O
129 43 1 0.41 9.018 -2.998 15.945 # H2
130 44 1 0.41 -8.255 10.072 -12.501 # H1
131 44 2 -0.82 -7.944 10.280 -11.560 # O
132 44 1 0.41 -6.919 10.131 -11.443 # H2
133 45 1 0.41 12.849 -5.394 -15.843 # H1
134 45 2 -0.82 13.347 -5.559 -14.946 # O
135 45 1 0.41 13.730 -6.504 -14.881 # H2
136 46 1 0.41 4.316 -4.069 -6.371 # H1
137 46 2 -0.82 3.680 -3.971 -5.576 # O
138 46 1 0.41 3.480 -2.983 -5.533 # H2
139 47 1 0.41 10.607 11.101 15.447 # H1
140 47 2 -0.82 10.170 10.153 15.463 # O
141 47 1 0.41 10.890 9.426 15.423 # H2
142 48 1 0.41 -5.113 8.987 -11.296 # H1
143 48 2 -0.82 -5.399 9.941 -11.527 # O
144 48 1 0.41 -4.659 10.498 -11.912 # H2
145 49 1 0.41 10.043 -8.786 13.521 # H1
146 49 2 -0.82 10.680 -8.578 14.318 # O
147 49 1 0.41 10.248 -8.970 15.159 # H2
148 50 1 0.41 -5.480 -10.753 -16.218 # H1
149 50 2 -0.82 -5.877 -10.863 -15.271 # O
150 50 1 0.41 -5.580 -11.716 -14.842 # H2
151 51 1 0.41 13.488 -5.605 3.342 # H1
152 51 2 -0.82 12.640 -5.141 3.006 # O
153 51 1 0.41 12.761 -4.144 2.763 # H2
154 52 1 0.41 -12.428 -1.948 -8.141 # H1
155 52 2 -0.82 -12.378 -2.696 -8.813 # O
156 52 1 0.41 -12.894 -3.560 -8.604 # H2
157 53 1 0.41 7.552 -6.875 12.301 # H1
158 53 2 -0.82 7.722 -6.009 12.803 # O
159 53 1 0.41 6.919 -5.400 12.607 # H2
160 54 1 0.41 4.728 -5.172 1.365 # H1
161 54 2 -0.82 5.251 -5.300 2.200 # O
162 54 1 0.41 5.846 -6.115 2.110 # H2
163 55 1 0.41 -9.088 -13.995 -2.207 # H1
164 55 2 -0.82 -8.860 -14.868 -1.718 # O
165 55 1 0.41 -9.597 -15.600 -1.767 # H2
166 56 1 0.41 3.295 -0.101 14.822 # H1
167 56 2 -0.82 3.450 0.542 14.033 # O
168 56 1 0.41 4.285 1.064 14.200 # H2
169 57 1 0.41 -1.692 2.324 1.809 # H1
170 57 2 -0.82 -1.374 3.288 1.759 # O
171 57 1 0.41 -1.648 3.680 0.880 # H2
172 58 1 0.41 -13.708 -3.367 -3.759 # H1
173 58 2 -0.82 -14.510 -2.758 -3.973 # O
174 58 1 0.41 -15.315 -2.845 -3.340 # H2
175 59 1 0.41 15.649 6.183 0.001 # H1
176 59 2 -0.82 14.971 6.479 -0.723 # O
177 59 1 0.41 14.311 5.751 -0.982 # H2
178 60 1 0.41 -2.444 3.327 -1.320 # H1
179 60 2 -0.82 -1.865 4.095 -0.956 # O
180 60 1 0.41 -0.873 3.949 -1.210 # H2
181 61 1 0.41 9.128 -11.556 1.294 # H1
182 61 2 -0.82 9.829 -12.177 0.918 # O
183 61 1 0.41 10.703 -11.649 1.079 # H2
184 62 1 0.41 14.211 -8.305 -14.230 # H1
185 62 2 -0.82 13.705 -8.576 -15.073 # O
186 62 1 0.41 12.719 -8.392 -14.851 # H2
187 63 1 0.41 -2.969 -2.961 0.836 # H1
188 63 2 -0.82 -2.962 -2.238 1.579 # O
189 63 1 0.41 -3.353 -2.664 2.416 # H2
190 64 1 0.41 -2.900 15.238 -9.928 # H1
191 64 2 -0.82 -3.759 15.669 -9.612 # O
192 64 1 0.41 -3.596 16.259 -8.811 # H2
193 65 1 0.41 -9.477 -4.902 3.374 # H1
194 65 2 -0.82 -9.626 -4.702 2.389 # O
195 65 1 0.41 -10.105 -3.821 2.216 # H2
196 66 1 0.41 7.935 -4.888 6.395 # H1
197 66 2 -0.82 6.965 -4.805 6.052 # O
198 66 1 0.41 6.748 -5.591 5.426 # H2
199 67 1 0.41 -7.897 -2.689 -11.464 # H1
200 67 2 -0.82 -8.614 -3.406 -11.483 # O
201 67 1 0.41 -9.195 -3.317 -10.664 # H2
202 68 1 0.41 -5.877 6.512 7.175 # H1
203 68 2 -0.82 -4.963 6.833 7.430 # O
204 68 1 0.41 -4.313 6.222 6.912 # H2
205 69 1 0.41 2.284 -10.888 -1.450 # H1
206 69 2 -0.82 2.144 -10.411 -2.363 # O
207 69 1 0.41 1.705 -11.036 -3.060 # H2
208 70 1 0.41 -5.006 12.832 -0.130 # H1
209 70 2 -0.82 -5.415 13.304 -0.938 # O
210 70 1 0.41 -4.681 13.280 -1.655 # H2
211 71 1 0.41 10.576 -0.351 -5.730 # H1
212 71 2 -0.82 9.783 -0.570 -6.304 # O
213 71 1 0.41 9.927 0.037 -7.078 # H2
214 72 1 0.41 2.041 1.339 7.343 # H1
215 72 2 -0.82 1.475 1.724 8.092 # O
216 72 1 0.41 0.477 1.551 8.034 # H2
217 73 1 0.41 12.125 10.968 -10.996 # H1
218 73 2 -0.82 12.734 11.382 -11.732 # O
219 73 1 0.41 13.755 11.336 -11.482 # H2
220 74 1 0.41 16.081 -0.647 -5.006 # H1
221 74 2 -0.82 15.210 -0.140 -5.004 # O
222 74 1 0.41 15.135 0.407 -4.135 # H2
223 75 1 0.41 -0.937 2.025 14.639 # H1
224 75 2 -0.82 -1.874 2.184 14.314 # O
225 75 1 0.41 -1.981 2.674 13.436 # H2
226 76 1 0.41 -3.439 -9.283 3.699 # H1
227 76 2 -0.82 -2.677 -8.942 4.282 # O
228 76 1 0.41 -2.474 -7.935 4.283 # H2
229 77 1 0.41 -2.099 13.665 13.690 # H1
230 77 2 -0.82 -2.862 13.537 13.028 # O
231 77 1 0.41 -3.422 12.733 13.267 # H2
232 78 1 0.41 13.846 -3.200 -10.806 # H1
233 78 2 -0.82 14.522 -3.209 -11.564 # O
234 78 1 0.41 14.477 -2.331 -12.099 # H2
235 79 1 0.41 -1.988 5.887 -1.934 # H1
236 79 2 -0.82 -1.602 6.558 -2.606 # O
237 79 1 0.41 -2.305 6.873 -3.278 # H2
238 80 1 0.41 1.699 -10.600 -7.712 # H1
239 80 2 -0.82 2.622 -10.855 -7.422 # O
240 80 1 0.41 3.179 -10.009 -7.328 # H2
241 81 1 0.41 7.729 -7.331 -5.478 # H1
242 81 2 -0.82 7.441 -6.484 -5.016 # O
243 81 1 0.41 6.500 -6.282 -5.292 # H2
244 82 1 0.41 -11.054 12.186 -4.637 # H1
245 82 2 -0.82 -11.255 11.225 -4.321 # O
246 82 1 0.41 -10.378 10.688 -4.019 # H2
247 83 1 0.41 2.435 1.264 -12.997 # H1
248 83 2 -0.82 1.474 1.167 -13.294 # O
249 83 1 0.41 0.933 0.976 -12.465 # H2
250 84 1 0.41 -11.330 -8.373 4.946 # H1
251 84 2 -0.82 -11.392 -9.309 4.474 # O
252 84 1 0.41 -11.404 -10.025 5.221 # H2
253 85 1 0.41 5.618 -6.094 4.082 # H1
254 85 2 -0.82 5.961 -6.880 4.632 # O
255 85 1 0.41 5.647 -7.757 4.200 # H2
256 86 1 0.41 -0.095 -14.413 4.196 # H1
257 86 2 -0.82 -0.091 -14.800 5.153 # O
258 86 1 0.41 -0.399 -14.097 5.848 # H2
259 87 1 0.41 -0.645 15.017 -3.434 # H1
260 87 2 -0.82 -0.531 15.417 -4.370 # O
261 87 1 0.41 0.260 14.971 -4.813 # H2
262 88 1 0.41 -12.966 -9.407 11.763 # H1
263 88 2 -0.82 -12.018 -9.472 12.163 # O
264 88 1 0.41 -11.560 -8.560 12.133 # H2
265 89 1 0.41 -3.318 1.719 11.626 # H1
266 89 2 -0.82 -2.737 2.371 11.140 # O
267 89 1 0.41 -3.351 2.954 10.570 # H2
268 90 1 0.41 -6.731 1.448 9.749 # H1
269 90 2 -0.82 -5.703 1.448 9.887 # O
270 90 1 0.41 -5.280 2.377 9.721 # H2
271 91 1 0.41 -12.317 -9.090 1.630 # H1
272 91 2 -0.82 -12.602 -9.972 2.070 # O
273 91 1 0.41 -12.146 -9.871 3.005 # H2
274 92 1 0.41 -12.061 -13.557 7.779 # H1
275 92 2 -0.82 -12.253 -12.630 7.449 # O
276 92 1 0.41 -11.465 -12.011 7.431 # H2
277 93 1 0.41 6.150 13.563 14.510 # H1
278 93 2 -0.82 6.279 14.465 14.932 # O
279 93 1 0.41 5.586 15.095 14.564 # H2
280 94 1 0.41 3.861 -1.069 -14.537 # H1
281 94 2 -0.82 4.588 -1.563 -13.960 # O
282 94 1 0.41 4.357 -1.409 -12.978 # H2
283 95 1 0.41 -14.248 12.337 -8.859 # H1
284 95 2 -0.82 -13.256 12.405 -8.954 # O
285 95 1 0.41 -12.926 12.098 -9.877 # H2
286 96 1 0.41 -8.394 5.689 15.368 # H1
287 96 2 -0.82 -8.116 4.753 15.177 # O
288 96 1 0.41 -8.644 4.317 14.395 # H2
289 97 1 0.41 2.391 10.491 -14.867 # H1
290 97 2 -0.82 2.008 11.142 -14.175 # O
291 97 1 0.41 2.593 12.012 -14.067 # H2
292 98 1 0.41 -3.365 -8.875 -3.836 # H1
293 98 2 -0.82 -3.550 -8.239 -3.056 # O
294 98 1 0.41 -3.174 -8.664 -2.198 # H2
295 99 1 0.41 -0.001 -11.156 -4.794 # H1
296 99 2 -0.82 0.178 -11.870 -4.130 # O
297 99 1 0.41 0.528 -12.733 -4.542 # H2
298 100 1 0.41 -13.066 -11.426 6.420 # H1
299 100 2 -0.82 -13.382 -11.011 5.537 # O
300 100 1 0.41 -13.249 -11.656 4.732 # H2
301 101 1 0.41 -11.244 1.208 12.575 # H1
302 101 2 -0.82 -10.785 0.375 12.995 # O
303 101 1 0.41 -10.930 0.316 14.006 # H2
304 102 1 0.41 -12.612 2.791 -9.330 # H1
305 102 2 -0.82 -12.973 3.719 -9.117 # O
306 102 1 0.41 -13.992 3.638 -9.167 # H2
307 103 1 0.41 11.872 -0.329 6.996 # H1
308 103 2 -0.82 11.896 -1.353 6.965 # O
309 103 1 0.41 11.133 -1.729 6.451 # H2
310 104 1 0.41 -15.715 -8.088 -8.633 # H1
311 104 2 -0.82 -15.146 -8.295 -9.488 # O
312 104 1 0.41 -15.236 -7.522 -10.143 # H2
313 105 1 0.41 11.780 -0.559 -1.326 # H1
314 105 2 -0.82 12.014 -1.228 -2.060 # O
315 105 1 0.41 11.179 -1.795 -2.252 # H2
316 106 1 0.41 -5.100 13.360 8.014 # H1
317 106 2 -0.82 -5.382 12.667 8.736 # O
318 106 1 0.41 -4.653 11.930 8.885 # H2
319 107 1 0.41 -3.767 6.438 0.705 # H1
320 107 2 -0.82 -2.812 6.335 0.293 # O
321 107 1 0.41 -2.523 5.391 0.035 # H2
322 108 1 0.41 7.766 -3.134 -6.573 # H1
323 108 2 -0.82 8.361 -3.312 -7.371 # O
324 108 1 0.41 8.511 -2.448 -7.783 # H2
325 109 1 0.41 -15.580 -5.092 -3.965 # H1
326 109 2 -0.82 -15.504 -5.245 -2.957 # O
327 109 1 0.41 -15.110 -6.153 -2.734 # H2
328 110 1 0.41 9.894 7.124 -10.470 # H1
329 110 2 -0.82 9.861 7.212 -9.455 # O
330 110 1 0.41 8.925 7.475 -9.132 # H2
331 111 1 0.41 -11.908 14.996 -10.167 # H1
332 111 2 -0.82 -12.462 15.655 -10.669 # O
333 111 1 0.41 -11.855 16.308 -11.150 # H2
334 112 1 0.41 1.278 0.394 0.767 # H1
335 112 2 -0.82 1.340 -0.541 0.357 # O
336 112 1 0.41 1.665 -1.219 1.043 # H2
337 113 1 0.41 -14.185 -3.349 -6.418 # H1
338 113 2 -0.82 -13.879 -4.283 -6.758 # O
339 113 1 0.41 -14.299 -5.027 -6.256 # H2
340 114 1 0.41 5.608 -3.639 5.910 # H1
341 114 2 -0.82 4.731 -3.108 5.909 # O
342 114 1 0.41 4.572 -2.601 6.768 # H2
343 115 1 0.41 -3.032 -4.807 -4.259 # H1
344 115 2 -0.82 -3.708 -4.038 -4.260 # O
345 115 1 0.41 -4.542 -4.287 -3.706 # H2
346 116 1 0.41 11.182 -3.980 0.196 # H1
347 116 2 -0.82 10.969 -3.215 0.874 # O
348 116 1 0.41 11.764 -2.635 1.152 # H2
349 117 1 0.41 -8.051 -6.818 13.626 # H1
350 117 2 -0.82 -8.259 -6.532 12.646 # O
351 117 1 0.41 -7.527 -6.696 11.985 # H2
352 118 1 0.41 11.711 -6.512 1.723 # H1
353 118 2 -0.82 10.953 -7.164 1.668 # O
354 118 1 0.41 10.495 -6.797 0.818 # H2
355 119 1 0.41 10.554 13.093 -0.572 # H1
356 119 2 -0.82 9.904 12.595 0.035 # O
357 119 1 0.41 9.462 11.817 -0.437 # H2
358 120 1 0.41 0.258 1.931 -7.807 # H1
359 120 2 -0.82 -0.561 2.539 -7.648 # O
360 120 1 0.41 -1.074 2.164 -6.817 # H2
361 121 1 0.41 12.471 -6.483 9.775 # H1
362 121 2 -0.82 12.127 -6.455 8.786 # O
363 121 1 0.41 12.889 -6.496 8.112 # H2
364 122 1 0.41 -13.687 -9.340 -7.344 # H1
365 122 2 -0.82 -12.966 -8.867 -7.871 # O
366 122 1 0.41 -13.474 -8.486 -8.657 # H2
367 123 1 0.41 8.749 5.622 -5.243 # H1
368 123 2 -0.82 8.568 6.410 -5.882 # O
369 123 1 0.41 8.192 6.106 -6.769 # H2
370 124 1 0.41 -13.921 -1.710 -5.387 # H1
371 124 2 -0.82 -13.988 -1.358 -6.322 # O
372 124 1 0.41 -13.527 -0.471 -6.505 # H2
373 125 1 0.41 -9.563 9.271 -7.853 # H1
374 125 2 -0.82 -9.153 8.626 -8.526 # O
375 125 1 0.41 -8.903 7.791 -8.028 # H2
376 126 1 0.41 -10.946 -2.200 1.219 # H1
377 126 2 -0.82 -10.442 -2.843 0.647 # O
378 126 1 0.41 -10.951 -3.620 0.248 # H2
379 127 1 0.41 12.609 -0.223 -9.590 # H1
380 127 2 -0.82 13.181 0.602 -9.652 # O
381 127 1 0.41 14.164 0.452 -9.485 # H2
382 128 1 0.41 -12.467 -2.055 -14.505 # H1
383 128 2 -0.82 -13.410 -2.248 -14.186 # O
384 128 1 0.41 -14.129 -1.775 -14.699 # H2
385 129 1 0.41 3.911 11.639 6.066 # H1
386 129 2 -0.82 4.475 12.264 6.639 # O
387 129 1 0.41 5.088 12.798 6.010 # H2
388 130 1 0.41 8.242 3.822 6.316 # H1
389 130 2 -0.82 7.728 3.156 6.902 # O
390 130 1 0.41 7.104 2.550 6.398 # H2
391 131 1 0.41 -15.882 4.704 11.150 # H1
392 131 2 -0.82 -15.683 4.032 11.906 # O
393 131 1 0.41 -15.966 4.427 12.822 # H2
394 132 1 0.41 -7.050 12.736 -1.812 # H1
395 132 2 -0.82 -7.869 12.361 -2.313 # O
396 132 1 0.41 -8.007 12.879 -3.187 # H2
397 133 1 0.41 -11.627 8.758 -6.510 # H1
398 133 2 -0.82 -10.823 9.387 -6.499 # O
399 133 1 0.41 -11.139 10.078 -5.830 # H2
400 134 1 0.41 -16.259 2.232 -8.201 # H1
401 134 2 -0.82 -15.732 2.787 -8.870 # O
402 134 1 0.41 -16.047 3.765 -8.955 # H2
403 135 1 0.41 -12.959 -15.062 8.130 # H1
404 135 2 -0.82 -11.956 -15.101 8.227 # O
405 135 1 0.41 -11.606 -15.543 7.389 # H2
406 136 1 0.41 -1.692 -15.108 0.096 # H1
407 136 2 -0.82 -1.409 -15.038 -0.878 # O
408 136 1 0.41 -1.398 -15.990 -1.243 # H2
409 137 1 0.41 -15.524 7.855 9.000 # H1
410 137 2 -0.82 -15.417 8.625 9.656 # O
411 137 1 0.41 -14.455 8.705 10.065 # H2
412 138 1 0.41 0.215 2.695 -13.842 # H1
413 138 2 -0.82 -0.482 3.063 -14.533 # O
414 138 1 0.41 -0.070 3.477 -15.414 # H2
415 139 1 0.41 4.915 -2.359 -10.372 # H1
416 139 2 -0.82 5.708 -2.401 -9.691 # O
417 139 1 0.41 6.540 -2.755 -10.175 # H2
418 140 1 0.41 13.458 -2.335 -8.502 # H1
419 140 2 -0.82 12.606 -2.878 -8.648 # O
420 140 1 0.41 12.413 -3.425 -7.796 # H2
421 141 1 0.41 -3.848 -5.323 -11.679 # H1
422 141 2 -0.82 -3.580 -4.444 -11.201 # O
423 141 1 0.41 -2.646 -4.566 -10.831 # H2
424 142 1 0.41 14.546 -13.326 -10.564 # H1
425 142 2 -0.82 14.102 -13.553 -9.672 # O
426 142 1 0.41 14.687 -14.097 -9.044 # H2
427 143 1 0.41 -1.868 12.265 11.398 # H1
428 143 2 -0.82 -2.320 11.438 11.047 # O
429 143 1 0.41 -3.217 11.395 11.499 # H2
430 144 1 0.41 -6.298 11.753 -3.699 # H1
431 144 2 -0.82 -5.511 11.162 -3.885 # O
432 144 1 0.41 -5.430 10.417 -3.196 # H2
433 145 1 0.41 1.820 13.219 3.165 # H1
434 145 2 -0.82 2.354 12.428 2.835 # O
435 145 1 0.41 3.132 12.758 2.266 # H2
436 146 1 0.41 4.040 -13.212 -10.803 # H1
437 146 2 -0.82 3.346 -13.840 -11.201 # O
438 146 1 0.41 3.401 -14.763 -10.759 # H2
439 147 1 0.41 -8.745 2.453 -3.792 # H1
440 147 2 -0.82 -9.608 1.914 -3.809 # O
441 147 1 0.41 -10.312 2.231 -4.494 # H2
442 148 1 0.41 10.258 -14.482 -3.634 # H1
443 148 2 -0.82 10.096 -14.038 -2.724 # O
444 148 1 0.41 10.862 -14.273 -2.098 # H2
445 149 1 0.41 -15.215 -0.645 -10.040 # H1
446 149 2 -0.82 -15.605 0.007 -9.366 # O
447 149 1 0.41 -15.162 0.923 -9.323 # H2
448 150 1 0.41 12.494 14.968 9.985 # H1
449 150 2 -0.82 13.443 14.592 9.807 # O
450 150 1 0.41 14.036 14.574 10.663 # H2
451 151 1 0.41 1.367 3.364 5.704 # H1
452 151 2 -0.82 2.060 4.085 5.907 # O
453 151 1 0.41 1.617 4.877 6.333 # H2
454 152 1 0.41 -5.583 2.965 -12.127 # H1
455 152 2 -0.82 -6.033 3.592 -11.487 # O
456 152 1 0.41 -7.017 3.715 -11.647 # H2
457 153 1 0.41 -9.384 -12.574 1.432 # H1
458 153 2 -0.82 -8.563 -12.498 0.879 # O
459 153 1 0.41 -8.486 -13.339 0.298 # H2
460 154 1 0.41 -2.119 -4.936 -6.835 # H1
461 154 2 -0.82 -1.391 -4.299 -6.521 # O
462 154 1 0.41 -0.675 -4.795 -5.989 # H2
463 155 1 0.41 6.512 7.773 -8.329 # H1
464 155 2 -0.82 7.166 7.784 -9.139 # O
465 155 1 0.41 6.790 8.213 -10.031 # H2
466 156 1 0.41 1.069 -0.612 -3.967 # H1
467 156 2 -0.82 0.567 0.031 -4.546 # O
468 156 1 0.41 0.324 -0.542 -5.389 # H2
469 157 1 0.41 -8.021 -10.577 -13.748 # H1
470 157 2 -0.82 -8.556 -9.761 -13.462 # O
471 157 1 0.41 -7.940 -8.974 -13.253 # H2
472 158 1 0.41 -9.439 -0.198 4.765 # H1
473 158 2 -0.82 -9.800 0.722 5.081 # O
474 158 1 0.41 -10.829 0.708 5.059 # H2
475 159 1 0.41 -6.033 -12.523 -7.869 # H1
476 159 2 -0.82 -5.612 -13.227 -7.287 # O
477 159 1 0.41 -4.689 -13.467 -7.638 # H2
478 160 1 0.41 -9.472 14.409 0.557 # H1
479 160 2 -0.82 -8.864 14.813 1.288 # O
480 160 1 0.41 -8.073 15.325 0.890 # H2
481 161 1 0.41 -3.139 -4.367 11.625 # H1
482 161 2 -0.82 -3.582 -3.519 11.194 # O
483 161 1 0.41 -4.091 -3.015 11.939 # H2
484 162 1 0.41 7.112 7.573 8.662 # H1
485 162 2 -0.82 7.106 8.353 9.290 # O
486 162 1 0.41 7.125 9.234 8.772 # H2
487 163 1 0.41 -6.312 6.101 -2.710 # H1
488 163 2 -0.82 -5.856 6.437 -3.569 # O
489 163 1 0.41 -5.258 5.740 -4.026 # H2
490 164 1 0.41 4.372 -0.820 10.447 # H1
491 164 2 -0.82 3.389 -1.049 10.383 # O
492 164 1 0.41 2.770 -0.276 10.703 # H2
493 165 1 0.41 -3.960 14.786 12.355 # H1
494 165 2 -0.82 -4.424 15.521 11.796 # O
495 165 1 0.41 -5.207 15.036 11.348 # H2
496 166 1 0.41 -5.936 0.369 6.537 # H1
497 166 2 -0.82 -6.854 0.682 6.239 # O
498 166 1 0.41 -7.520 0.547 7.006 # H2
499 167 1 0.41 8.297 6.435 5.346 # H1
500 167 2 -0.82 8.441 5.424 5.322 # O
501 167 1 0.41 9.437 5.138 5.292 # H2
502 168 1 0.41 -0.183 -3.919 10.010 # H1
503 168 2 -0.82 -0.050 -4.576 9.225 # O
504 168 1 0.41 0.721 -4.375 8.553 # H2
505 169 1 0.41 -13.382 6.599 -11.748 # H1
506 169 2 -0.82 -14.339 6.327 -11.591 # O
507 169 1 0.41 -14.464 5.623 -10.888 # H2
508 170 1 0.41 -13.741 -14.939 -7.959 # H1
509 170 2 -0.82 -14.366 -15.365 -8.618 # O
510 170 1 0.41 -13.914 -15.409 -9.524 # H2
511 171 1 0.41 6.316 14.370 -12.321 # H1
512 171 2 -0.82 5.782 14.072 -11.476 # O
513 171 1 0.41 6.163 14.477 -10.627 # H2
514 172 1 0.41 -10.613 14.785 11.202 # H1
515 172 2 -0.82 -10.446 14.634 10.231 # O
516 172 1 0.41 -11.072 15.125 9.646 # H2
517 173 1 0.41 -6.191 13.478 -8.468 # H1
518 173 2 -0.82 -6.329 13.139 -9.413 # O
519 173 1 0.41 -7.261 12.900 -9.596 # H2
520 174 1 0.41 8.024 -13.550 -6.889 # H1
521 174 2 -0.82 7.854 -14.511 -6.565 # O
522 174 1 0.41 7.078 -14.564 -5.874 # H2
523 175 1 0.41 3.754 13.780 -2.962 # H1
524 175 2 -0.82 3.772 14.405 -3.773 # O
525 175 1 0.41 2.861 14.576 -4.220 # H2
526 176 1 0.41 14.166 15.565 -4.599 # H1
527 176 2 -0.82 14.488 15.580 -5.579 # O
528 176 1 0.41 14.758 16.451 -5.957 # H2
529 177 1 0.41 15.221 -5.325 -1.348 # H1
530 177 2 -0.82 14.695 -5.013 -0.527 # O
531 177 1 0.41 15.216 -4.988 0.333 # H2
532 178 1 0.41 9.113 2.568 -7.256 # H1
533 178 2 -0.82 8.481 3.069 -6.648 # O
534 178 1 0.41 8.087 3.923 -7.061 # H2
535 179 1 0.41 -2.506 13.147 0.070 # H1
536 179 2 -0.82 -2.108 14.047 0.353 # O
537 179 1 0.41 -1.949 14.114 1.360 # H2
538 180 1 0.41 7.544 -9.255 -8.298 # H1
539 180 2 -0.82 6.938 -8.556 -7.891 # O
540 180 1 0.41 7.293 -7.592 -7.972 # H2
541 181 1 0.41 -10.308 11.740 6.514 # H1
542 181 2 -0.82 -9.774 11.148 5.889 # O
543 181 1 0.41 -8.795 11.184 6.229 # H2
544 182 1 0.41 13.533 -9.791 13.490 # H1
545 182 2 -0.82 12.794 -10.310 13.942 # O
546 182 1 0.41 12.224 -9.538 14.326 # H2
547 183 1 0.41 -12.204 -3.822 3.959 # H1
548 183 2 -0.82 -12.614 -4.788 3.891 # O
549 183 1 0.41 -12.755 -4.806 2.879 # H2
550 184 1 0.41 -2.143 -6.152 12.694 # H1
551 184 2 -0.82 -2.800 -5.851 11.986 # O
552 184 1 0.41 -3.102 -6.647 11.419 # H2
553 185 1 0.41 6.018 5.370 0.775 # H1
554 185 2 -0.82 6.395 5.928 1.517 # O
555 185 1 0.41 6.102 5.547 2.412 # H2
556 186 1 0.41 10.115 -7.830 8.160 # H1
557 186 2 -0.82 10.073 -7.976 7.173 # O
558 186 1 0.41 10.670 -7.322 6.677 # H2
559 187 1 0.41 -8.733 -4.722 11.473 # H1
560 187 2 -0.82 -8.893 -4.025 10.732 # O
561 187 1 0.41 -8.185 -3.298 10.840 # H2
562 188 1 0.41 -7.634 8.290 -0.016 # H1
563 188 2 -0.82 -6.645 8.339 0.227 # O
564 188 1 0.41 -6.509 9.226 0.705 # H2
565 189 1 0.41 -5.182 0.457 -4.980 # H1
566 189 2 -0.82 -5.542 1.357 -4.677 # O
567 189 1 0.41 -5.403 2.139 -5.344 # H2
568 190 1 0.41 -4.935 -6.816 13.512 # H1
569 190 2 -0.82 -5.160 -6.417 14.395 # O
570 190 1 0.41 -6.085 -6.706 14.689 # H2
571 191 1 0.41 -15.490 -8.246 1.142 # H1
572 191 2 -0.82 -15.540 -7.273 1.376 # O
573 191 1 0.41 -15.924 -7.055 2.333 # H2
574 192 1 0.41 -0.224 9.707 2.983 # H1
575 192 2 -0.82 -1.009 9.265 3.518 # O
576 192 1 0.41 -1.414 9.861 4.258 # H2
577 193 1 0.41 -1.370 14.397 15.433 # H1
578 193 2 -0.82 -0.807 13.724 14.893 # O
579 193 1 0.41 0.163 13.943 15.043 # H2
580 194 1 0.41 -12.565 8.999 11.422 # H1
581 194 2 -0.82 -13.037 9.346 10.588 # O
582 194 1 0.41 -12.511 9.369 9.721 # H2
583 195 1 0.41 -2.349 -14.181 -7.696 # H1
584 195 2 -0.82 -3.061 -13.628 -8.178 # O
585 195 1 0.41 -2.890 -12.641 -8.385 # H2
586 196 1 0.41 11.226 -3.206 -9.447 # H1
587 196 2 -0.82 10.567 -3.385 -10.179 # O
588 196 1 0.41 11.079 -3.842 -10.941 # H2
589 197 1 0.41 -12.131 -11.196 -5.034 # H1
590 197 2 -0.82 -11.207 -11.640 -5.004 # O
591 197 1 0.41 -10.888 -12.062 -5.887 # H2
592 198 1 0.41 -14.273 -9.286 -2.151 # H1
593 198 2 -0.82 -14.414 -9.173 -3.160 # O
594 198 1 0.41 -15.301 -8.705 -3.334 # H2
595 199 1 0.41 10.995 -15.559 -12.014 # H1
596 199 2 -0.82 11.427 -15.541 -12.930 # O
597 199 1 0.41 12.075 -14.754 -13.112 # H2
598 200 1 0.41 11.382 -14.797 -0.188 # H1
599 200 2 -0.82 10.533 -14.753 0.411 # O
600 200 1 0.41 10.098 -13.820 0.318 # H2
601 201 1 0.41 9.824 8.097 -12.427 # H1
602 201 2 -0.82 9.247 7.239 -12.302 # O
603 201 1 0.41 8.389 7.336 -12.849 # H2
604 202 1 0.41 -8.636 9.214 -4.369 # H1
605 202 2 -0.82 -9.173 9.793 -3.724 # O
606 202 1 0.41 -8.538 10.301 -3.136 # H2
607 203 1 0.41 -6.223 1.360 -2.943 # H1
608 203 2 -0.82 -6.430 1.627 -1.964 # O
609 203 1 0.41 -6.575 2.631 -1.824 # H2
610 204 1 0.41 -13.025 0.208 -2.012 # H1
611 204 2 -0.82 -12.766 -0.731 -1.753 # O
612 204 1 0.41 -11.758 -0.891 -1.810 # H2
613 205 1 0.41 -7.682 -0.415 4.891 # H1
614 205 2 -0.82 -8.112 -1.135 4.325 # O
615 205 1 0.41 -7.649 -1.255 3.426 # H2
616 206 1 0.41 -13.902 -15.494 11.183 # H1
617 206 2 -0.82 -14.389 -15.541 10.279 # O
618 206 1 0.41 -15.297 -15.114 10.243 # H2
619 207 1 0.41 4.039 -9.301 -10.532 # H1
620 207 2 -0.82 3.743 -8.354 -10.332 # O
621 207 1 0.41 4.622 -7.832 -10.277 # H2
622 208 1 0.41 -9.649 10.430 -0.501 # H1
623 208 2 -0.82 -9.724 11.460 -0.665 # O
624 208 1 0.41 -8.998 11.796 -1.321 # H2
625 209 1 0.41 14.655 -5.163 -9.673 # H1
626 209 2 -0.82 14.107 -5.596 -8.995 # O
627 209 1 0.41 14.571 -5.619 -8.114 # H2
628 210 1 0.41 14.260 -7.766 -6.701 # H1
629 210 2 -0.82 15.102 -8.198 -7.032 # O
630 210 1 0.41 15.064 -9.213 -6.824 # H2
631 211 1 0.41 7.440 16.101 -8.246 # H1
632 211 2 -0.82 7.387 15.570 -9.113 # O
633 211 1 0.41 8.188 14.920 -9.076 # H2
634 212 1 0.41 11.993 9.575 -9.018 # H1
635 212 2 -0.82 11.424 10.255 -9.570 # O
636 212 1 0.41 10.485 9.922 -9.771 # H2
637 213 1 0.41 16.624 8.936 0.685 # H1
638 213 2 -0.82 15.649 8.821 0.521 # O
639 213 1 0.41 15.328 8.040 -0.057 # H2
640 214 1 0.41 8.752 -12.266 -14.107 # H1
641 214 2 -0.82 9.423 -11.791 -14.719 # O
642 214 1 0.41 10.189 -12.442 -14.939 # H2
643 215 1 0.41 -6.311 13.547 10.328 # H1
644 215 2 -0.82 -6.687 14.153 11.025 # O
645 215 1 0.41 -7.605 13.813 11.259 # H2
646 216 1 0.41 -7.704 4.210 -5.250 # H1
647 216 2 -0.82 -7.531 3.592 -4.446 # O
648 216 1 0.41 -7.065 2.764 -4.707 # H2
649 217 1 0.41 10.456 1.460 -0.682 # H1
650 217 2 -0.82 11.396 1.107 -0.653 # O
651 217 1 0.41 11.888 1.255 0.222 # H2
652 218 1 0.41 -15.193 7.909 -5.190 # H1
653 218 2 -0.82 -15.203 8.307 -6.121 # O
654 218 1 0.41 -16.153 8.441 -6.452 # H2
655 219 1 0.41 -5.548 7.982 -2.837 # H1
656 219 2 -0.82 -5.354 8.726 -2.146 # O
657 219 1 0.41 -5.954 8.600 -1.332 # H2
658 220 1 0.41 -11.294 13.970 2.750 # H1
659 220 2 -0.82 -11.351 13.447 3.590 # O
660 220 1 0.41 -12.159 12.866 3.606 # H2
661 221 1 0.41 -0.987 2.800 4.602 # H1
662 221 2 -0.82 -0.351 2.397 5.282 # O
663 221 1 0.41 -0.213 1.413 5.050 # H2
664 222 1 0.41 14.023 -9.921 -13.936 # H1
665 222 2 -0.82 14.257 -10.517 -13.153 # O
666 222 1 0.41 13.491 -11.058 -12.828 # H2
667 223 1 0.41 7.657 -11.521 13.626 # H1
668 223 2 -0.82 7.735 -11.974 12.732 # O
669 223 1 0.41 8.019 -12.936 12.773 # H2
670 224 1 0.41 -15.838 11.863 7.195 # H1
671 224 2 -0.82 -15.545 10.890 7.198 # O
672 224 1 0.41 -16.353 10.267 6.947 # H2
673 225 1 0.41 -6.440 -2.676 1.624 # H1
674 225 2 -0.82 -5.869 -3.538 1.493 # O
675 225 1 0.41 -6.226 -4.292 2.096 # H2
676 226 1 0.41 4.164 -5.538 11.624 # H1
677 226 2 -0.82 3.688 -4.656 11.683 # O
678 226 1 0.41 3.314 -4.395 12.615 # H2
679 227 1 0.41 9.232 -5.409 12.762 # H1
680 227 2 -0.82 10.083 -4.852 12.743 # O
681 227 1 0.41 9.979 -3.910 12.318 # H2
682 228 1 0.41 -12.515 10.427 -3.411 # H1
683 228 2 -0.82 -13.173 9.864 -2.861 # O
684 228 1 0.41 -14.011 10.451 -2.743 # H2
685 229 1 0.41 -15.308 -8.820 10.842 # H1
686 229 2 -0.82 -14.620 -9.123 11.565 # O
687 229 1 0.41 -15.058 -9.768 12.219 # H2
688 230 1 0.41 6.343 6.684 11.231 # H1
689 230 2 -0.82 5.370 6.751 11.555 # O
690 230 1 0.41 4.906 5.980 11.955 # H2
691 231 1 0.41 7.297 -1.640 7.037 # H1
692 231 2 -0.82 7.338 -1.676 6.004 # O
693 231 1 0.41 7.449 -2.632 5.618 # H2
694 232 1 0.41 10.727 -7.982 9.782 # H1
695 232 2 -0.82 10.260 -8.888 9.882 # O
696 232 1 0.41 9.493 -8.839 10.577 # H2
697 233 1 0.41 12.591 -13.475 -10.186 # H1
698 233 2 -0.82 11.657 -13.279 -10.587 # O
699 233 1 0.41 11.089 -14.122 -10.503 # H2
700 234 1 0.41 3.507 -11.423 12.530 # H1
701 234 2 -0.82 2.528 -11.280 12.435 # O
702 234 1 0.41 2.099 -12.048 12.954 # H2
703 235 1 0.41 8.652 12.267 -11.567 # H1
704 235 2 -0.82 7.714 12.002 -11.231 # O
705 235 1 0.41 7.038 12.644 -11.660 # H2
706 236 1 0.41 -6.920 0.115 -14.361 # H1
707 236 2 -0.82 -6.684 -0.542 -15.073 # O
708 236 1 0.41 -6.046 -1.279 -14.746 # H2
709 237 1 0.41 3.992 7.623 4.241 # H1
710 237 2 -0.82 3.063 7.894 3.831 # O
711 237 1 0.41 2.356 7.180 3.931 # H2
712 238 1 0.41 7.430 3.037 13.595 # H1
713 238 2 -0.82 7.897 2.161 13.744 # O
714 238 1 0.41 8.147 1.901 14.674 # H2
715 239 1 0.41 -4.376 0.256 -10.242 # H1
716 239 2 -0.82 -3.858 0.566 -9.417 # O
717 239 1 0.41 -4.061 1.525 -9.227 # H2
718 240 1 0.41 -6.388 -4.589 -9.270 # H1
719 240 2 -0.82 -6.632 -5.402 -8.760 # O
720 240 1 0.41 -5.869 -5.576 -8.115 # H2
721 241 1 0.41 -14.724 2.545 -3.665 # H1
722 241 2 -0.82 -14.753 3.214 -4.438 # O
723 241 1 0.41 -15.324 4.049 -4.283 # H2
724 242 1 0.41 -0.870 4.847 -10.097 # H1
725 242 2 -0.82 -1.520 4.133 -9.713 # O
726 242 1 0.41 -1.271 3.672 -8.827 # H2
727 243 1 0.41 -16.384 -11.645 -7.531 # H1
728 243 2 -0.82 -15.748 -10.897 -7.771 # O
729 243 1 0.41 -15.742 -10.735 -8.769 # H2
730 244 1 0.41 -8.169 13.393 -5.808 # H1
731 244 2 -0.82 -8.442 12.995 -4.925 # O
732 244 1 0.41 -9.468 13.005 -4.799 # H2
733 245 1 0.41 -9.170 -12.931 -10.615 # H1
734 245 2 -0.82 -10.002 -13.290 -10.128 # O
735 245 1 0.41 -10.839 -13.161 -10.729 # H2
736 246 1 0.41 16.482 7.765 15.446 # H1