LAMMPS data file
# Generated by Playmol on 30-May-2022 at 20:41:09

2 atom types
1 bond types
1 angle types

384 atoms
256 bonds
128 angles

-7.874 7.874 xlo xhi
-7.874 7.874 ylo yhi
-7.874 7.874 zlo zhi

Masses

1 1.00790000 # HW
2 15.9994001 # OW

# Elements: H O

Pair Coeffs # lj/cut/coul/long

1 0.0000 0.0000 # HW
2 0.1554252 3.165492 # OW

Bond Coeffs # harmonic

1 529.5810 1.012 # HW OW

Angle Coeffs # harmonic

1 37.9500 113.24 # HW OW HW

Atoms

1 1 1 0.41 6.173 -6.250 5.219 # H1
2 1 2 -0.82 6.842 -5.644 5.700 # O
3 1 1 0.41 7.523 -6.095 6.288 # H2
4 2 1 0.41 -2.718 -5.312 -0.105 # H1
5 2 2 -0.82 -2.108 -5.962 0.408 # O
6 2 1 0.41 -1.976 -5.456 1.286 # H2
7 3 1 0.41 -3.072 -0.437 -6.509 # H1
8 3 2 -0.82 -2.534 -0.244 -5.651 # O
9 3 1 0.41 -2.356 -1.104 -5.146 # H2
10 4 1 0.41 -6.266 3.037 -2.398 # H1
11 4 2 -0.82 -7.002 2.472 -2.816 # O
12 4 1 0.41 -6.499 1.767 -3.361 # H2
13 5 1 0.41 -3.519 5.496 -5.756 # H1
14 5 2 -0.82 -4.272 6.137 -6.034 # O
15 5 1 0.41 -5.200 5.677 -6.053 # H2
16 6 1 0.41 -8.357 6.782 -4.417 # H1
17 6 2 -0.82 -7.558 7.129 -4.962 # O
18 6 1 0.41 -7.312 6.474 -5.690 # H2
19 7 1 0.41 -7.729 -6.477 8.030 # H1
20 7 2 -0.82 -7.117 -6.633 7.224 # O
21 7 1 0.41 -6.141 -6.631 7.514 # H2
22 8 1 0.41 3.090 -2.137 -1.733 # H1
23 8 2 -0.82 3.985 -1.674 -1.915 # O
24 8 1 0.41 4.604 -2.219 -2.480 # H2
25 9 1 0.41 5.904 4.197 -5.381 # H1
26 9 2 -0.82 6.715 4.101 -5.940 # O
27 9 1 0.41 6.477 4.496 -6.854 # H2
28 10 1 0.41 -3.763 1.728 5.472 # H1
29 10 2 -0.82 -4.076 1.205 6.282 # O
30 10 1 0.41 -4.380 0.261 6.147 # H2
31 11 1 0.41 1.729 5.666 5.460 # H1
32 11 2 -0.82 1.281 4.960 4.897 # O
33 11 1 0.41 0.335 4.752 5.243 # H2
34 12 1 0.41 -0.919 1.977 7.830 # H1
35 12 2 -0.82 -1.610 2.212 7.119 # O
36 12 1 0.41 -2.510 1.743 7.204 # H2
37 13 1 0.41 2.276 0.513 -4.323 # H1
38 13 2 -0.82 1.407 0.946 -4.062 # O
39 13 1 0.41 0.870 0.273 -3.512 # H2
40 14 1 0.41 7.307 -1.151 4.255 # H1
41 14 2 -0.82 7.413 -2.183 4.201 # O
42 14 1 0.41 7.787 -2.607 5.040 # H2
43 15 1 0.41 -6.402 7.256 -3.618 # H1
44 15 2 -0.82 -5.935 7.469 -2.735 # O
45 15 1 0.41 -4.957 7.119 -2.750 # H2
46 16 1 0.41 -5.957 -0.664 -3.382 # H1
47 16 2 -0.82 -5.686 0.270 -3.686 # O
48 16 1 0.41 -5.575 0.293 -4.698 # H2
49 17 1 0.41 1.324 -2.396 -4.461 # H1
50 17 2 -0.82 0.568 -2.586 -5.136 # O
51 17 1 0.41 1.024 -3.099 -5.898 # H2
52 18 1 0.41 6.442 -3.187 0.783 # H1
53 18 2 -0.82 6.989 -2.785 0.025 # O
54 18 1 0.41 6.811 -3.278 -0.832 # H2
55 19 1 0.41 -3.518 -5.263 -5.184 # H1
56 19 2 -0.82 -3.266 -4.887 -6.112 # O
57 19 1 0.41 -2.240 -4.941 -6.280 # H2
58 20 1 0.41 -5.415 8.297 1.881 # H1
59 20 2 -0.82 -5.326 7.345 2.286 # O
60 20 1 0.41 -4.361 7.224 2.639 # H2
61 21 1 0.41 -6.696 5.299 5.540 # H1
62 21 2 -0.82 -5.955 4.594 5.688 # O
63 21 1 0.41 -6.215 3.710 5.263 # H2
64 22 1 0.41 -0.820 0.867 -6.310 # H1
65 22 2 -0.82 0.121 1.218 -6.490 # O
66 22 1 0.41 0.657 0.910 -5.695 # H2
67 23 1 0.41 -2.199 4.057 -4.422 # H1
68 23 2 -0.82 -1.873 4.512 -5.292 # O
69 23 1 0.41 -0.898 4.517 -5.250 # H2
70 24 1 0.41 -1.139 3.214 -2.351 # H1
71 24 2 -0.82 -2.039 3.335 -2.827 # O
72 24 1 0.41 -2.605 2.478 -2.681 # H2
73 25 1 0.41 -2.555 -2.078 -2.792 # H1
74 25 2 -0.82 -2.354 -2.052 -1.825 # O
75 25 1 0.41 -2.795 -2.783 -1.245 # H2
76 26 1 0.41 0.283 -7.213 -3.140 # H1
77 26 2 -0.82 1.256 -7.016 -3.348 # O
78 26 1 0.41 1.492 -7.209 -4.299 # H2
79 27 1 0.41 4.502 2.715 -7.595 # H1
80 27 2 -0.82 3.555 3.055 -7.702 # O
81 27 1 0.41 3.019 2.547 -8.404 # H2
82 28 1 0.41 -1.378 3.588 6.291 # H1
83 28 2 -0.82 -1.355 4.272 5.501 # O
84 28 1 0.41 -2.093 4.978 5.542 # H2
85 29 1 0.41 -8.522 -6.295 -2.367 # H1
86 29 2 -0.82 -7.547 -6.004 -2.563 # O
87 29 1 0.41 -6.809 -6.729 -2.472 # H2
88 30 1 0.41 6.439 -6.582 2.610 # H1
89 30 2 -0.82 6.869 -5.933 1.979 # O
90 30 1 0.41 6.543 -5.010 2.214 # H2
91 31 1 0.41 -1.012 -3.744 3.269 # H1
92 31 2 -0.82 -0.106 -3.331 3.319 # O
93 31 1 0.41 0.136 -3.001 4.257 # H2
94 32 1 0.41 7.269 -5.780 -5.720 # H1
95 32 2 -0.82 6.951 -6.610 -6.244 # O
96 32 1 0.41 7.418 -7.437 -5.936 # H2
97 33 1 0.41 -7.983 4.482 0.951 # H1
98 33 2 -0.82 -7.438 3.632 0.839 # O
99 33 1 0.41 -6.591 3.694 1.348 # H2
100 34 1 0.41 -1.871 -1.284 1.188 # H1
101 34 2 -0.82 -2.889 -1.444 1.033 # O
102 34 1 0.41 -3.228 -0.798 0.342 # H2
103 35 1 0.41 0.271 6.044 -2.772 # H1
104 35 2 -0.82 0.390 5.333 -3.502 # O
105 35 1 0.41 1.023 5.549 -4.268 # H2
106 36 1 0.41 4.698 -0.533 -0.448 # H1
107 36 2 -0.82 4.886 -0.103 0.449 # O
108 36 1 0.41 5.409 0.769 0.354 # H2
109 37 1 0.41 3.033 3.636 -2.015 # H1
110 37 2 -0.82 3.884 3.727 -1.437 # O
111 37 1 0.41 4.620 3.182 -1.846 # H2
112 38 1 0.41 2.868 7.244 3.138 # H1
113 38 2 -0.82 3.205 7.057 4.098 # O
114 38 1 0.41 2.546 7.364 4.816 # H2
115 39 1 0.41 6.690 1.628 2.588 # H1
116 39 2 -0.82 5.851 1.132 2.836 # O
117 39 1 0.41 5.414 0.796 1.976 # H2
118 40 1 0.41 2.027 -6.807 1.669 # H1
119 40 2 -0.82 1.821 -7.780 1.679 # O
120 40 1 0.41 1.060 -8.101 1.116 # H2
121 41 1 0.41 -3.241 6.735 -1.482 # H1
122 41 2 -0.82 -3.248 6.229 -2.368 # O
123 41 1 0.41 -2.604 5.455 -2.436 # H2
124 42 1 0.41 -6.261 -2.191 6.215 # H1
125 42 2 -0.82 -7.012 -2.638 6.713 # O
126 42 1 0.41 -6.675 -3.328 7.409 # H2
127 43 1 0.41 7.306 -3.313 -4.570 # H1
128 43 2 -0.82 7.293 -4.351 -4.569 # O
129 43 1 0.41 7.739 -4.874 -3.797 # H2
130 44 1 0.41 -5.825 -2.116 2.531 # H1
131 44 2 -0.82 -5.026 -2.730 2.517 # O
132 44 1 0.41 -4.430 -2.500 1.719 # H2
133 45 1 0.41 1.503 5.039 3.316 # H1
134 45 2 -0.82 1.646 4.961 2.298 # O
135 45 1 0.41 1.585 5.863 1.813 # H2
136 46 1 0.41 -2.129 7.067 3.353 # H1
137 46 2 -0.82 -3.067 6.628 3.267 # O
138 46 1 0.41 -3.235 6.203 4.186 # H2
139 47 1 0.41 -4.935 1.195 2.159 # H1
140 47 2 -0.82 -5.657 0.481 2.306 # O
141 47 1 0.41 -6.452 0.441 1.647 # H2
142 48 1 0.41 -2.462 -8.388 -3.634 # H1
143 48 2 -0.82 -1.983 -7.555 -3.965 # O
144 48 1 0.41 -1.269 -7.760 -4.651 # H2
145 49 1 0.41 -4.679 -4.579 -0.178 # H1
146 49 2 -0.82 -4.019 -3.856 -0.445 # O
147 49 1 0.41 -4.335 -2.931 -0.303 # H2
148 50 1 0.41 6.418 2.271 -1.515 # H1
149 50 2 -0.82 6.465 1.998 -0.545 # O
150 50 1 0.41 7.080 2.653 -0.057 # H2
151 51 1 0.41 -5.652 -4.105 3.483 # H1
152 51 2 -0.82 -5.954 -4.974 3.876 # O
153 51 1 0.41 -6.710 -4.816 4.536 # H2
154 52 1 0.41 3.733 -6.994 -6.517 # H1
155 52 2 -0.82 3.199 -7.802 -6.197 # O
156 52 1 0.41 3.552 -8.653 -6.628 # H2
157 53 1 0.41 1.600 -2.681 -0.236 # H1
158 53 2 -0.82 1.576 -2.780 -1.259 # O
159 53 1 0.41 0.790 -2.202 -1.646 # H2
160 54 1 0.41 3.020 4.434 1.726 # H1
161 54 2 -0.82 3.974 4.234 1.302 # O
162 54 1 0.41 3.833 3.914 0.321 # H2
163 55 1 0.41 1.970 8.259 6.480 # H1
164 55 2 -0.82 2.065 7.256 6.386 # O
165 55 1 0.41 2.799 6.781 6.971 # H2
166 56 1 0.41 6.496 -8.223 3.696 # H1
167 56 2 -0.82 5.784 -7.545 3.961 # O
168 56 1 0.41 4.814 -7.879 4.017 # H2
169 57 1 0.41 8.372 -1.451 -6.178 # H1
170 57 2 -0.82 7.660 -1.689 -5.457 # O
171 57 1 0.41 7.198 -0.889 -5.123 # H2
172 58 1 0.41 -1.670 6.194 -8.573 # H1
173 58 2 -0.82 -1.904 6.314 -7.587 # O
174 58 1 0.41 -2.472 5.547 -7.252 # H2
175 59 1 0.41 -1.060 6.531 -1.410 # H1
176 59 2 -0.82 -0.120 6.941 -1.483 # O
177 59 1 0.41 0.073 7.663 -0.831 # H2
178 60 1 0.41 -0.743 -0.740 -1.804 # H1
179 60 2 -0.82 0.212 -0.577 -2.128 # O
180 60 1 0.41 0.830 -0.071 -1.481 # H2
181 61 1 0.41 7.494 6.363 2.277 # H1
182 61 2 -0.82 7.844 6.744 3.159 # O
183 61 1 0.41 8.866 6.594 3.127 # H2
184 62 1 0.41 -6.391 3.964 -7.044 # H1
185 62 2 -0.82 -6.280 4.587 -6.219 # O
186 62 1 0.41 -7.160 4.519 -5.670 # H2
187 63 1 0.41 1.876 -2.401 5.427 # H1
188 63 2 -0.82 0.928 -2.019 5.420 # O
189 63 1 0.41 0.909 -1.034 5.522 # H2
190 64 1 0.41 -4.023 -2.147 5.628 # H1
191 64 2 -0.82 -4.914 -1.893 5.194 # O
192 64 1 0.41 -4.606 -1.751 4.223 # H2
193 65 1 0.41 -2.213 1.758 3.788 # H1
194 65 2 -0.82 -2.994 2.334 4.043 # O
195 65 1 0.41 -2.680 3.281 4.142 # H2
196 66 1 0.41 5.290 6.275 -1.639 # H1
197 66 2 -0.82 6.247 6.428 -1.367 # O
198 66 1 0.41 6.700 6.885 -2.124 # H2
199 67 1 0.41 -4.911 -3.956 -6.280 # H1
200 67 2 -0.82 -5.771 -3.529 -6.593 # O
201 67 1 0.41 -6.394 -3.232 -5.818 # H2
202 68 1 0.41 -5.222 5.451 2.073 # H1
203 68 2 -0.82 -4.999 4.473 2.225 # O
204 68 1 0.41 -4.022 4.256 2.254 # H2
205 69 1 0.41 -0.558 -7.149 4.298 # H1
206 69 2 -0.82 -0.822 -7.786 3.543 # O
207 69 1 0.41 -0.480 -7.441 2.636 # H2
208 70 1 0.41 -3.248 -1.602 -8.389 # H1
209 70 2 -0.82 -4.031 -1.546 -7.779 # O
210 70 1 0.41 -4.640 -2.378 -7.730 # H2
211 71 1 0.41 -2.850 -6.336 3.160 # H1
212 71 2 -0.82 -2.932 -5.324 3.045 # O
213 71 1 0.41 -3.863 -4.959 3.242 # H2
214 72 1 0.41 4.351 -0.915 1.978 # H1
215 72 2 -0.82 3.962 -1.304 2.840 # O
216 72 1 0.41 3.634 -0.560 3.487 # H2
217 73 1 0.41 -2.670 -5.502 6.308 # H1
218 73 2 -0.82 -1.770 -5.012 6.377 # O
219 73 1 0.41 -1.448 -5.324 7.293 # H2
220 74 1 0.41 -8.189 0.742 0.309 # H1
221 74 2 -0.82 -7.747 -0.017 0.812 # O
222 74 1 0.41 -8.210 -0.931 0.918 # H2
223 75 1 0.41 -3.955 3.585 0.046 # H1
224 75 2 -0.82 -3.188 3.076 0.441 # O
225 75 1 0.41 -3.028 2.186 -0.046 # H2
226 76 1 0.41 6.667 4.300 6.485 # H1
227 76 2 -0.82 6.489 5.104 7.083 # O
228 76 1 0.41 7.117 5.821 6.660 # H2
229 77 1 0.41 -0.319 0.883 4.393 # H1
230 77 2 -0.82 0.162 0.902 5.314 # O
231 77 1 0.41 -0.385 1.354 6.022 # H2
232 78 1 0.41 -1.411 -4.470 -2.740 # H1
233 78 2 -0.82 -2.248 -5.046 -2.916 # O
234 78 1 0.41 -2.086 -6.025 -3.198 # H2
235 79 1 0.41 0.198 1.668 2.705 # H1
236 79 2 -0.82 -0.649 1.109 2.861 # O
237 79 1 0.41 -0.588 0.133 2.554 # H2
238 80 1 0.41 -4.369 -6.863 6.970 # H1
239 80 2 -0.82 -3.948 -6.561 6.076 # O
240 80 1 0.41 -4.594 -6.308 5.345 # H2
241 81 1 0.41 4.348 -5.336 -2.793 # H1
242 81 2 -0.82 5.222 -5.845 -2.744 # O
243 81 1 0.41 5.449 -5.982 -1.756 # H2
244 82 1 0.41 0.313 2.865 -0.721 # H1
245 82 2 -0.82 -0.220 2.162 -0.143 # O
246 82 1 0.41 -0.869 2.518 0.529 # H2
247 83 1 0.41 2.064 -5.439 -2.620 # H1
248 83 2 -0.82 2.711 -4.719 -2.338 # O
249 83 1 0.41 2.231 -3.863 -2.137 # H2
250 84 1 0.41 -3.868 -4.993 -3.283 # H1
251 84 2 -0.82 -4.668 -5.442 -3.755 # O
252 84 1 0.41 -5.178 -6.142 -3.228 # H2
253 85 1 0.41 4.217 3.029 3.148 # H1
254 85 2 -0.82 4.301 3.133 4.180 # O
255 85 1 0.41 3.841 4.007 4.507 # H2
256 86 1 0.41 3.423 2.074 5.222 # H1
257 86 2 -0.82 2.845 1.551 5.871 # O
258 86 1 0.41 1.854 1.537 5.706 # H2
259 87 1 0.41 -6.478 1.378 3.972 # H1
260 87 2 -0.82 -6.308 2.341 4.290 # O
261 87 1 0.41 -5.457 2.684 3.881 # H2
262 88 1 0.41 0.303 -4.958 -6.660 # H1
263 88 2 -0.82 -0.623 -5.352 -6.845 # O
264 88 1 0.41 -0.588 -6.289 -6.463 # H2
265 89 1 0.41 2.190 -3.795 -7.900 # H1
266 89 2 -0.82 1.955 -4.334 -7.069 # O
267 89 1 0.41 2.756 -4.859 -6.726 # H2
268 90 1 0.41 4.542 5.692 -8.363 # H1
269 90 2 -0.82 3.886 5.782 -7.563 # O
270 90 1 0.41 3.744 4.817 -7.229 # H2
271 91 1 0.41 1.561 0.187 -7.271 # H1
272 91 2 -0.82 2.395 -0.278 -7.617 # O
273 91 1 0.41 2.824 0.263 -8.366 # H2
274 92 1 0.41 3.528 -4.188 -3.754 # H1
275 92 2 -0.82 3.924 -3.719 -4.574 # O
276 92 1 0.41 4.912 -3.847 -4.755 # H2
277 93 1 0.41 0.449 -0.893 1.226 # H1
278 93 2 -0.82 -0.316 -1.216 1.832 # O
279 93 1 0.41 0.028 -2.007 2.421 # H2
280 94 1 0.41 -4.187 7.214 0.374 # H1
281 94 2 -0.82 -3.259 7.244 -0.059 # O
282 94 1 0.41 -2.791 8.141 0.089 # H2
283 95 1 0.41 2.869 -0.606 -6.124 # H1
284 95 2 -0.82 3.289 -0.826 -5.224 # O
285 95 1 0.41 3.713 -1.766 -5.278 # H2
286 96 1 0.41 4.880 6.157 -4.305 # H1
287 96 2 -0.82 5.614 6.849 -4.144 # O
288 96 1 0.41 5.385 7.772 -4.495 # H2
289 97 1 0.41 -2.625 -3.459 -5.257 # H1
290 97 2 -0.82 -2.029 -2.880 -4.702 # O
291 97 1 0.41 -1.051 -3.000 -4.836 # H2
292 98 1 0.41 1.540 -3.509 2.295 # H1
293 98 2 -0.82 2.136 -2.878 1.732 # O
294 98 1 0.41 2.940 -2.648 2.288 # H2
295 99 1 0.41 6.613 2.586 -6.963 # H1
296 99 2 -0.82 6.273 1.853 -7.573 # O
297 99 1 0.41 6.527 1.945 -8.549 # H2
298 100 1 0.41 -6.264 -0.976 0.054 # H1
299 100 2 -0.82 -5.663 -1.719 -0.316 # O
300 100 1 0.41 -6.273 -2.474 -0.584 # H2
301 101 1 0.41 4.351 4.169 -3.467 # H1
302 101 2 -0.82 4.245 4.508 -4.410 # O
303 101 1 0.41 3.332 4.363 -4.816 # H2
304 102 1 0.41 -1.633 -1.563 6.309 # H1
305 102 2 -0.82 -2.335 -2.240 6.038 # O
306 102 1 0.41 -2.180 -3.203 6.261 # H2
307 103 1 0.41 1.502 2.476 -2.920 # H1
308 103 2 -0.82 1.411 3.265 -2.262 # O
309 103 1 0.41 1.045 4.126 -2.690 # H2
310 104 1 0.41 6.053 2.770 4.731 # H1
311 104 2 -0.82 6.886 2.839 5.328 # O
312 104 1 0.41 7.662 2.356 4.889 # H2
313 105 1 0.41 5.415 1.741 -3.639 # H1
314 105 2 -0.82 5.798 2.483 -3.073 # O
315 105 1 0.41 6.824 2.614 -3.174 # H2
316 106 1 0.41 -3.709 6.934 5.960 # H1
317 106 2 -0.82 -3.630 5.937 5.779 # O
318 106 1 0.41 -4.491 5.354 5.796 # H2
319 107 1 0.41 -4.964 -2.546 -2.569 # H1
320 107 2 -0.82 -5.593 -2.670 -3.342 # O
321 107 1 0.41 -5.483 -3.600 -3.747 # H2
322 108 1 0.41 -1.788 6.393 0.810 # H1
323 108 2 -0.82 -0.825 6.056 0.934 # O
324 108 1 0.41 -0.793 5.501 1.811 # H2
325 109 1 0.41 -6.925 -5.873 0.805 # H1
326 109 2 -0.82 -5.985 -5.507 0.710 # O
327 109 1 0.41 -5.795 -4.769 1.417 # H2
328 110 1 0.41 0.769 -8.003 -6.339 # H1
329 110 2 -0.82 -0.204 -7.825 -6.101 # O
330 110 1 0.41 -0.858 -8.419 -6.635 # H2
331 111 1 0.41 -4.112 0.977 -2.095 # H1
332 111 2 -0.82 -3.268 0.848 -1.563 # O
333 111 1 0.41 -2.987 -0.128 -1.626 # H2
334 112 1 0.41 5.081 0.222 -5.013 # H1
335 112 2 -0.82 6.047 0.524 -5.080 # O
336 112 1 0.41 6.327 0.895 -5.995 # H2
337 113 1 0.41 2.693 0.555 0.413 # H1
338 113 2 -0.82 1.773 0.368 0.014 # O
339 113 1 0.41 1.117 1.110 0.224 # H2
340 114 1 0.41 6.372 -2.344 8.706 # H1
341 114 2 -0.82 6.294 -2.389 7.673 # O
342 114 1 0.41 7.215 -2.310 7.167 # H2
343 115 1 0.41 2.621 -5.014 -0.589 # H1
344 115 2 -0.82 2.697 -5.174 0.434 # O
345 115 1 0.41 2.359 -4.300 0.896 # H2
346 116 1 0.41 4.534 -5.297 0.057 # H1
347 116 2 -0.82 5.481 -5.649 -0.186 # O
348 116 1 0.41 6.022 -5.853 0.680 # H2
349 117 1 0.41 -6.124 3.395 7.223 # H1
350 117 2 -0.82 -6.018 2.478 7.633 # O
351 117 1 0.41 -5.227 1.978 7.228 # H2
352 118 1 0.41 -8.013 7.053 4.918 # H1
353 118 2 -0.82 -7.649 6.956 5.866 # O
354 118 1 0.41 -7.501 7.869 6.329 # H2
355 119 1 0.41 5.516 -6.062 -7.212 # H1
356 119 2 -0.82 4.581 -5.628 -7.338 # O
357 119 1 0.41 4.546 -4.959 -8.117 # H2
358 120 1 0.41 -6.061 3.839 -0.496 # H1
359 120 2 -0.82 -5.304 4.300 -0.914 # O
360 120 1 0.41 -5.527 5.271 -1.207 # H2
361 121 1 0.41 3.248 -1.654 7.501 # H1
362 121 2 -0.82 3.564 -2.403 6.895 # O
363 121 1 0.41 4.554 -2.444 6.811 # H2
364 122 1 0.41 -4.527 -7.905 -6.666 # H1
365 122 2 -0.82 -4.732 -7.081 -7.222 # O
366 122 1 0.41 -4.093 -6.351 -6.887 # H2
367 123 1 0.41 1.481 2.605 -5.114 # H1
368 123 2 -0.82 2.039 3.423 -5.255 # O
369 123 1 0.41 2.646 3.362 -6.072 # H2
370 124 1 0.41 4.870 -2.687 2.666 # H1
371 124 2 -0.82 5.630 -3.368 2.555 # O
372 124 1 0.41 6.263 -3.158 3.291 # H2
373 125 1 0.41 3.342 -5.235 4.110 # H1
374 125 2 -0.82 3.020 -4.556 4.798 # O
375 125 1 0.41 3.729 -3.847 5.028 # H2
376 126 1 0.41 6.304 6.104 0.229 # H1
377 126 2 -0.82 6.438 5.536 1.065 # O
378 126 1 0.41 5.589 5.128 1.331 # H2
379 127 1 0.41 -6.282 1.021 -6.938 # H1
380 127 2 -0.82 -5.900 0.154 -6.574 # O
381 127 1 0.41 -5.451 -0.300 -7.384 # H2
382 128 1 0.41 1.608 -5.373 5.090 # H1
383 128 2 -0.82 0.986 -6.106 5.396 # O
384 128 1 0.41 0.116 -5.708 5.716 # H2

Bonds

1 1 2 1 # O H1
2 1 2 3 # O H2
3 1 5 4 # O H1
4 1 5 6 # O H2
5 1 8 7 # O H1
6 1 8 9 # O H2
7 1 11 10 # O H1
8 1 11 12 # O H2
9 1 14 13 # O H1
10 1 14 15 # O H2
11 1 17 16 # O H1
12 1 17 18 # O H2
13 1 20 19 # O H1
14 1 20 21 # O H2
15 1 23 22 # O H1
16 1 23 24 # O H2
17 1 26 25 # O H1
18 1 26 27 # O H2
19 1 29 28 # O H1
20 1 29 30 # O H2
21 1 32 31 # O H1
22 1 32 33 # O H2
23 1 35 34 # O H1
24 1 35 36 # O H2
25 1 38 37 # O H1
26 1 38 39 # O H2
27 1 41 40 # O H1
28 1 41 42 # O H2
29 1 44 43 # O H1
30 1 44 45 # O H2
31 1 47 46 # O H1
32 1 47 48 # O H2
33 1 50 49 # O H1
34 1 50 51 # O H2
35 1 53 52 # O H1
36 1 53 54 # O H2
37 1 56 55 # O H1
38 1 56 57 # O H2
39 1 59 58 # O H1
40 1 59 60 # O H2
41 1 62 61 # O H1
42 1 62 63 # O H2
43 1 65 64 # O H1
44 1 65 66 # O H2
45 1 68 67 # O H1
46 1 68 69 # O H2
47 1 71 70 # O H1
48 1 71 72 # O H2
49 1 74 73 # O H1
50 1 74 75 # O H2
51 1 77 76 # O H1
52 1 77 78 # O H2
53 1 80 79 # O H1
54 1 80 81 # O H2
55 1 83 82 # O H1
56 1 83 84 # O H2
57 1 86 85 # O H1
58 1 86 87 # O H2
59 1 89 88 # O H1
60 1 89 90 # O H2
61 1 92 91 # O H1
62 1 92 93 # O H2
63 1 95 94 # O H1
64 1 95 96 # O H2
65 1 98 97 # O H1
66 1 98 99 # O H2
67 1 101 100 # O H1
68 1 101 102 # O H2
69 1 104 103 # O H1
70 1 104 105 # O H2
71 1 107 106 # O H1
72 1 107 108 # O H2
73 1 110 109 # O H1
74 1 110 111 # O H2
75 1 113 112 # O H1
76 1 113 114 # O H2
77 1 116 115 # O H1
78 1 116 117 # O H2
79 1 119 118 # O H1
80 1 119 120 # O H2
81 1 122 121 # O H1
82 1 122 123 # O H2
83 1 125 124 # O H1
84 1 125 126 # O H2
85 1 128 127 # O H1
86 1 128 129 # O H2
87 1 131 130 # O H1
88 1 131 132 # O H2
89 1 134 133 # O H1
90 1 134 135 # O H2
91 1 137 136 # O H1
92 1 137 138 # O H2
93 1 140 139 # O H1
94 1 140 141 # O H2
95 1 143 142 # O H1
96 1 143 144 # O H2
97 1 146 145 # O H1
98 1 146 147 # O H2
99 1 149 148 # O H1
100 1 149 150 # O H2
101 1 152 151 # O H1
102 1 152 153 # O H2
103 1 155 154 # O H1
104 1 155 156 # O H2
105 1 158 157 # O H1
106 1 158 159 # O H2
107 1 161 160 # O H1
108 1 161 162 # O H2
109 1 164 163 # O H1
110 1 164 165 # O H2
111 1 167 166 # O H1
112 1 167 168 # O H2
113 1 170 169 # O H1
114 1 170 171 # O H2
115 1 173 172 # O H1
116 1 173 174 # O H2
117 1 176 175 # O H1
118 1 176 177 # O H2
119 1 179 178 # O H1
120 1 179 180 # O H2
121 1 182 181 # O H1
122 1 182 183 # O H2
123 1 185 184 # O H1
124 1 185 186 # O H2
125 1 188 187 # O H1
126 1 188 189 # O H2
127 1 191 190 # O H1
128 1 191 192 # O H2
129 1 194 193 # O H1
130 1 194 195 # O H2
131 1 197 196 # O H1
132 1 197 198 # O H2
133 1 200 199 # O H1
134 1 200 201 # O H2
135 1 203 202 # O H1
136 1 203 204 # O H2
137 1 206 205 # O H1
138 1 206 207 # O H2
139 1 209 208 # O H1
140 1 209 210 # O H2
141 1 212 211 # O H1
142 1 212 213 # O H2
143 1 215 214 # O H1
144 1 215 216 # O H2
145 1 218 217 # O H1
146 1 218 219 # O H2
147 1 221 220 # O H1
148 1 221 222 # O H2
149 1 224 223 # O H1
150 1 224 225 # O H2
151 1 227 226 # O H1
152 1 227 228 # O H2
153 1 230 229 # O H1
154 1 230 231 # O H2
155 1 233 232 # O H1
156 1 233 234 # O H2
157 1 236 235 # O H1
158 1 236 237 # O H2
159 1 239 238 # O H1
160 1 239 240 # O H2
161 1 242 241 # O H1
162 1 242 243 # O H2
163 1 245 244 # O H1
164 1 245 246 # O H2
165 1 248 247 # O H1
166 1 248 249 # O H2
167 1 251 250 # O H1
168 1 251 252 # O H2
169 1 254 253 # O H1
170 1 254 255 # O H2
171 1 257 256 # O H1
172 1 257 258 # O H2
173 1 260 259 # O H1
174 1 260 261 # O H2
175 1 263 262 # O H1
176 1 263 264 # O H2
177 1 266 265 # O H1
178 1 266 267 # O H2
179 1 269 268 # O H1
180 1 269 270 # O H2
181 1 272 271 # O H1
182 1 272 273 # O H2
183 1 275 274 # O H1
184 1 275 276 # O H2
185 1 278 277 # O H1
186 1 278 279 # O H2
187 1 281 280 # O H1
188 1 281 282 # O H2
189 1 284 283 # O H1
190 1 284 285 # O H2
191 1 287 286 # O H1
192 1 287 288 # O H2
193 1 290 289 # O H1
194 1 290 291 # O H2
195 1 293 292 # O H1
196 1 293 294 # O H2
197 1 296 295 # O H1
198 1 296 297 # O H2
199 1 299 298 # O H1
200 1 299 300 # O H2
201 1 302 301 # O H1
202 1 302 303 # O H2
203 1 305 304 # O H1
204 1 305 306 # O H2
205 1 308 307 # O H1
206 1 308 309 # O H2
207 1 311 310 # O H1
208 1 311 312 # O H2
209 1 314 313 # O H1
210 1 314 315 # O H2
211 1 317 316 # O H1
212 1 317 318 # O H2
213 1 320 319 # O H1
214 1 320 321 # O H2
215 1 323 322 # O H1
216 1 323 324 # O H2
217 1 326 325 # O H1
218 1 326 327 # O H2
219 1 329 328 # O H1
220 1 329 330 # O H2
221 1 332 331 # O H1
222 1 332 333 # O H2
223 1 335 334 # O H1
224 1 335 336 # O H2
225 1 338 337 # O H1
226 1 338 339 # O H2
227 1 341 340 # O H1
228 1 341 342 # O H2
229 1 344 343 # O H1
230 1 344 345 # O H2
231 1 347 346 # O H1
232 1 347 348 # O H2
233 1 350 349 # O H1
234 1 350 351 # O H2
235 1 353 352 # O H1
236 1 353 354 # O H2
237 1 356 355 # O H1
238 1 356 357 # O H2
239 1 359 358 # O H1
240 1 359 360 # O H2
241 1 362 361 # O H1
242 1 362 363 # O H2
243 1 365 364 # O H1
244 1 365 366 # O H2
245 1 368 367 # O H1
246 1 368 369 # O H2
247 1 371 370 # O H1
248 1 371 372 # O H2
249 1 374 373 # O H1
250 1 374 375 # O H2
251 1 377 376 # O H1
252 1 377 378 # O H2
253 1 380 379 # O H1
254 1 380 381 # O H2
255 1 383 382 # O H1
256 1 383 384 # O H2

Angles

1 1 1 2 3 # H1 O H2
2 1 4 5 6 # H1 O H2
3 1 7 8 9 # H1 O H2
4 1 10 11 12 # H1 O H2
5 1 13 14 15 # H1 O H2
6 1 16 17 18 # H1 O H2
7 1 19 20 21 # H1 O H2
8 1 22 23 24 # H1 O H2
9 1 25 26 27 # H1 O H2
10 1 28 29 30 # H1 O H2
11 1 31 32 33 # H1 O H2
12 1 34 35 36 # H1 O H2
13 1 37 38 39 # H1 O H2
14 1 40 41 42 # H1 O H2
15 1 43 44 45 # H1 O H2
16 1 46 47 48 # H1 O H2
17 1 49 50 51 # H1 O H2
18 1 52 53 54 # H1 O H2
19 1 55 56 57 # H1 O H2
20 1 58 59 60 # H1 O H2
21 1 61 62 63 # H1 O H2
22 1 64 65 66 # H1 O H2
23 1 67 68 69 # H1 O H2
24 1 70 71 72 # H1 O H2
25 1 73 74 75 # H1 O H2
26 1 76 77 78 # H1 O H2
27 1 79 80 81 # H1 O H2
28 1 82 83 84 # H1 O H2
29 1 85 86 87 # H1 O H2
30 1 88 89 90 # H1 O H2
31 1 91 92 93 # H1 O H2
32 1 94 95 96 # H1 O H2
33 1 97 98 99 # H1 O H2
34 1 100 101 102 # H1 O H2
35 1 103 104 105 # H1 O H2
36 1 106 107 108 # H1 O H2
37 1 109 110 111 # H1 O H2
38 1 112 113 114 # H1 O H2
39 1 115 116 117 # H1 O H2
40 1 118 119 120 # H1 O H2
41 1 121 122 123 # H1 O H2
42 1 124 125 126 # H1 O H2
43 1 127 128 129 # H1 O H2
44 1 130 131 132 # H1 O H2
45 1 133 134 135 # H1 O H2
46 1 136 137 138 # H1 O H2
47 1 139 140 141 # H1 O H2
48 1 142 143 144 # H1 O H2
49 1 145 146 147 # H1 O H2
50 1 148 149 150 # H1 O H2
51 1 151 152 153 # H1 O H2
52 1 154 155 156 # H1 O H2
53 1 157 158 159 # H1 O H2
54 1 160 161 162 # H1 O H2
55 1 163 164 165 # H1 O H2
56 1 166 167 168 # H1 O H2
57 1 169 170 171 # H1 O H2
58 1 172 173 174 # H1 O H2
59 1 175 176 177 # H1 O H2
60 1 178 179 180 # H1 O H2
61 1 181 182 183 # H1 O H2
62 1 184 185 186 # H1 O H2
63 1 187 188 189 # H1 O H2
64 1 190 191 192 # H1 O H2
65 1 193 194 195 # H1 O H2
66 1 196 197 198 # H1 O H2
67 1 199 200 201 # H1 O H2
68 1 202 203 204 # H1 O H2
69 1 205 206 207 # H1 O H2
70 1 208 209 210 # H1 O H2
71 1 211 212 213 # H1 O H2
72 1 214 215 216 # H1 O H2
73 1 217 218 219 # H1 O H2
74 1 220 221 222 # H1 O H2
75 1 223 224 225 # H1 O H2
76 1 226 227 228 # H1 O H2
77 1 229 230 231 # H1 O H2
78 1 232 233 234 # H1 O H2
79 1 235 236 237 # H1 O H2
80 1 238 239 240 # H1 O H2
81 1 241 242 243 # H1 O H2
82 1 244 245 246 # H1 O H2
83 1 247 248 249 # H1 O H2
84 1 250 251 252 # H1 O H2
85 1 253 254 255 # H1 O H2
86 1 256 257 258 # H1 O H2
87 1 259 260 261 # H1 O H2
88 1 262 263 264 # H1 O H2
89 1 265 266 267 # H1 O H2
90 1 268 269 270 # H1 O H2
91 1 271 272 273 # H1 O H2
92 1 274 275 276 # H1 O H2
93 1 277 278 279 # H1 O H2
94 1 280 281 282 # H1 O H2
95 1 283 284 285 # H1 O H2
96 1 286 287 288 # H1 O H2
97 1 289 290 291 # H1 O H2
98 1 292 293 294 # H1 O H2
99 1 295 296 297 # H1 O H2
100 1 298 299 300 # H1 O H2
101 1 301 302 303 # H1 O H2
102 1 304 305 306 # H1 O H2
103 1 307 308 309 # H1 O H2
104 1 310 311 312 # H1 O H2
105 1 313 314 315 # H1 O H2
106 1 316 317 318 # H1 O H2
107 1 319 320 321 # H1 O H2
108 1 322 323 324 # H1 O H2
109 1 325 326 327 # H1 O H2
110 1 328 329 330 # H1 O H2
111 1 331 332 333 # H1 O H2
112 1 334 335 336 # H1 O H2
113 1 337 338 339 # H1 O H2
114 1 340 341 342 # H1 O H2
115 1 343 344 345 # H1 O H2
116 1 346 347 348 # H1 O H2
117 1 349 350 351 # H1 O H2
118 1 352 353 354 # H1 O H2
119 1 355 356 357 # H1 O H2
120 1 358 359 360 # H1 O H2
121 1 361 362 363 # H1 O H2
122 1 364 365 366 # H1 O H2
123 1 367 368 369 # H1 O H2
124 1 370 371 372 # H1 O H2
125 1 373 374 375 # H1 O H2
126 1 376 377 378 # H1 O H2
127 1 379 380 381 # H1 O H2
128 1 382 383 384 # H1 O H2
