LAMMPS data file
# Generated by Playmol on 3-Mar-2020 at 13:49:10

2 atom types
1 bond types
1 angle types

648 atoms
432 bonds
216 angles

-9.488 9.488 xlo xhi
-9.488 9.488 ylo yhi
-9.488 9.488 zlo zhi

Masses

1 1.00790000 # HW
2 15.9994001 # OW

# Elements: H O

Pair Coeffs # lj/cut/coul/long

1 0.0000 0.0000 # HW
2 0.1554252 3.165492 # OW

Bond Coeffs # harmonic

1 529.5810 1.012 # HW OW

Angle Coeffs # harmonic

1 37.9500 113.24 # HW OW HW

Atoms

1 1 1 0.41 -4.698 8.796 3.700 # H1
2 1 2 -0.82 -4.878 8.050 3.035 # O
3 1 1 0.41 -4.152 7.953 2.315 # H2
4 2 1 0.41 9.073 5.426 -1.418 # H1
5 2 2 -0.82 9.469 5.989 -2.136 # O
6 2 1 0.41 8.806 6.693 -2.427 # H2
7 3 1 0.41 -1.823 -8.138 2.718 # H1
8 3 2 -0.82 -1.787 -7.240 2.263 # O
9 3 1 0.41 -1.806 -7.395 1.262 # H2
10 4 1 0.41 3.220 4.005 5.250 # H1
11 4 2 -0.82 2.839 4.911 5.486 # O
12 4 1 0.41 1.845 4.698 5.584 # H2
13 5 1 0.41 -0.968 2.922 -8.917 # H1
14 5 2 -0.82 -1.940 2.555 -8.928 # O
15 5 1 0.41 -2.006 1.622 -8.477 # H2
16 6 1 0.41 1.699 9.085 -6.188 # H1
17 6 2 -0.82 0.743 9.196 -5.844 # O
18 6 1 0.41 0.587 8.372 -5.272 # H2
19 7 1 0.41 -0.697 1.333 7.128 # H1
20 7 2 -0.82 -0.377 0.745 7.872 # O
21 7 1 0.41 -0.861 -0.164 7.903 # H2
22 8 1 0.41 -5.631 5.770 8.454 # H1
23 8 2 -0.82 -5.333 5.494 9.435 # O
24 8 1 0.41 -5.281 4.492 9.530 # H2
25 9 1 0.41 0.792 -1.562 5.556 # H1
26 9 2 -0.82 -0.182 -1.795 5.741 # O
27 9 1 0.41 -0.304 -2.732 6.117 # H2
28 10 1 0.41 -4.476 6.853 -2.398 # H1
29 10 2 -0.82 -3.692 7.543 -2.414 # O
30 10 1 0.41 -3.959 8.435 -1.969 # H2
31 11 1 0.41 5.788 6.557 2.981 # H1
32 11 2 -0.82 5.706 6.748 3.955 # O
33 11 1 0.41 5.975 5.841 4.366 # H2
34 12 1 0.41 8.564 -0.365 3.491 # H1
35 12 2 -0.82 7.591 -0.360 3.213 # O
36 12 1 0.41 7.187 -1.256 3.268 # H2
37 13 1 0.41 9.357 9.197 -5.044 # H1
38 13 2 -0.82 8.871 8.408 -5.470 # O
39 13 1 0.41 9.462 7.577 -5.562 # H2
40 14 1 0.41 1.705 8.322 -1.726 # H1
41 14 2 -0.82 1.596 8.875 -2.624 # O
42 14 1 0.41 0.970 9.695 -2.580 # H2
43 15 1 0.41 0.633 2.334 -5.312 # H1
44 15 2 -0.82 1.560 1.894 -5.274 # O
45 15 1 0.41 1.614 1.028 -4.752 # H2
46 16 1 0.41 -2.017 7.561 -1.828 # H1
47 16 2 -0.82 -1.208 7.478 -1.198 # O
48 16 1 0.41 -0.618 6.708 -1.519 # H2
49 17 1 0.41 8.872 -5.803 1.435 # H1
50 17 2 -0.82 8.109 -6.489 1.288 # O
51 17 1 0.41 7.283 -5.937 0.997 # H2
52 18 1 0.41 -7.257 0.654 7.025 # H1
53 18 2 -0.82 -6.280 0.986 7.088 # O
54 18 1 0.41 -5.746 0.307 6.533 # H2
55 19 1 0.41 -3.523 -3.003 3.254 # H1
56 19 2 -0.82 -4.026 -3.540 3.945 # O
57 19 1 0.41 -3.852 -4.543 3.874 # H2
58 20 1 0.41 8.912 -2.889 4.031 # H1
59 20 2 -0.82 8.940 -3.222 4.982 # O
60 20 1 0.41 8.044 -3.596 5.274 # H2
61 21 1 0.41 -3.426 0.779 -4.540 # H1
62 21 2 -0.82 -2.714 1.101 -3.897 # O
63 21 1 0.41 -2.811 0.559 -3.034 # H2
64 22 1 0.41 3.500 8.309 5.544 # H1
65 22 2 -0.82 3.142 7.851 4.698 # O
66 22 1 0.41 3.929 7.306 4.349 # H2
67 23 1 0.41 1.915 -0.469 -2.786 # H1
68 23 2 -0.82 2.023 -0.437 -3.793 # O
69 23 1 0.41 2.986 -0.443 -4.139 # H2
70 24 1 0.41 -5.547 -1.327 -5.610 # H1
71 24 2 -0.82 -4.665 -0.787 -5.629 # O
72 24 1 0.41 -4.505 -0.397 -6.566 # H2
73 25 1 0.41 -7.539 2.789 2.972 # H1
74 25 2 -0.82 -7.932 2.181 2.301 # O
75 25 1 0.41 -7.156 1.881 1.704 # H2
76 26 1 0.41 -7.263 -5.022 -8.650 # H1
77 26 2 -0.82 -7.789 -5.824 -9.044 # O
78 26 1 0.41 -7.846 -6.539 -8.324 # H2
79 27 1 0.41 8.533 3.431 0.230 # H1
80 27 2 -0.82 8.539 3.377 -0.783 # O
81 27 1 0.41 8.943 2.460 -0.968 # H2
82 28 1 0.41 5.678 2.162 -2.181 # H1
83 28 2 -0.82 5.167 1.285 -2.198 # O
84 28 1 0.41 4.171 1.447 -2.434 # H2
85 29 1 0.41 -8.041 5.730 3.903 # H1
86 29 2 -0.82 -8.768 5.232 3.459 # O
87 29 1 0.41 -8.936 5.519 2.501 # H2
88 30 1 0.41 -3.434 8.469 7.649 # H1
89 30 2 -0.82 -4.055 8.979 7.003 # O
90 30 1 0.41 -5.009 8.744 7.227 # H2
91 31 1 0.41 -9.448 -8.274 -0.893 # H1
92 31 2 -0.82 -9.032 -7.954 -1.768 # O
93 31 1 0.41 -9.442 -7.057 -2.013 # H2
94 32 1 0.41 8.114 -6.589 -7.102 # H1
95 32 2 -0.82 8.138 -6.290 -6.127 # O
96 32 1 0.41 9.068 -5.998 -5.828 # H2
97 33 1 0.41 9.466 -9.384 6.742 # H1
98 33 2 -0.82 8.622 -8.973 7.096 # O
99 33 1 0.41 7.828 -9.603 6.947 # H2
100 34 1 0.41 -1.352 3.996 1.035 # H1
101 34 2 -0.82 -1.612 3.036 0.928 # O
102 34 1 0.41 -1.950 2.935 -0.050 # H2
103 35 1 0.41 -4.721 -6.022 -10.148 # H1
104 35 2 -0.82 -4.239 -5.454 -9.466 # O
105 35 1 0.41 -3.297 -5.259 -9.764 # H2
106 36 1 0.41 6.019 -0.572 -7.047 # H1
107 36 2 -0.82 5.877 0.427 -7.280 # O
108 36 1 0.41 6.413 0.677 -8.093 # H2
109 37 1 0.41 2.124 2.763 1.165 # H1
110 37 2 -0.82 1.432 2.056 1.431 # O
111 37 1 0.41 0.500 2.346 1.118 # H2
112 38 1 0.41 -0.397 9.028 2.679 # H1
113 38 2 -0.82 -1.439 9.122 2.751 # O
114 38 1 0.41 -1.803 8.561 3.519 # H2
115 39 1 0.41 -1.454 5.092 2.755 # H1
116 39 2 -0.82 -1.176 5.585 1.892 # O
117 39 1 0.41 -1.713 6.439 1.739 # H2
118 40 1 0.41 -5.096 -1.619 8.339 # H1
119 40 2 -0.82 -4.204 -1.904 7.871 # O
120 40 1 0.41 -4.265 -2.891 7.694 # H2
121 41 1 0.41 -1.776 -5.592 -8.061 # H1
122 41 2 -0.82 -1.556 -4.590 -7.920 # O
123 41 1 0.41 -2.204 -4.115 -7.301 # H2
124 42 1 0.41 1.272 0.416 1.505 # H1
125 42 2 -0.82 1.396 -0.604 1.468 # O
126 42 1 0.41 0.621 -1.102 1.910 # H2
127 43 1 0.41 -6.792 -3.227 2.768 # H1
128 43 2 -0.82 -6.874 -4.227 3.046 # O
129 43 1 0.41 -6.706 -4.359 4.027 # H2
130 44 1 0.41 4.596 -8.583 2.634 # H1
131 44 2 -0.82 4.914 -7.846 3.242 # O
132 44 1 0.41 4.202 -7.131 3.436 # H2
133 45 1 0.41 8.458 -0.154 -7.817 # H1
134 45 2 -0.82 9.044 -0.762 -7.278 # O
135 45 1 0.41 9.089 -1.771 -7.537 # H2
136 46 1 0.41 7.544 9.048 -6.365 # H1
137 46 2 -0.82 6.961 9.213 -7.209 # O
138 46 1 0.41 7.167 10.068 -7.689 # H2
139 47 1 0.41 7.315 7.251 -0.105 # H1
140 47 2 -0.82 7.536 7.980 0.572 # O
141 47 1 0.41 6.928 8.792 0.389 # H2
142 48 1 0.41 3.120 4.716 -1.756 # H1
143 48 2 -0.82 2.402 4.285 -2.345 # O
144 48 1 0.41 2.874 3.631 -2.964 # H2
145 49 1 0.41 5.484 6.118 -8.994 # H1
146 49 2 -0.82 4.586 5.698 -8.807 # O
147 49 1 0.41 4.192 5.357 -9.650 # H2
148 50 1 0.41 8.421 7.500 7.230 # H1
149 50 2 -0.82 8.956 6.998 7.965 # O
150 50 1 0.41 9.450 7.617 8.595 # H2
151 51 1 0.41 0.257 4.765 7.157 # H1
152 51 2 -0.82 0.017 4.981 6.178 # O
153 51 1 0.41 -0.075 6.000 6.096 # H2
154 52 1 0.41 2.705 -5.501 3.047 # H1
155 52 2 -0.82 3.130 -5.916 3.838 # O
156 52 1 0.41 3.275 -5.208 4.528 # H2
157 53 1 0.41 5.372 4.308 -7.588 # H1
158 53 2 -0.82 5.169 3.890 -6.640 # O
159 53 1 0.41 4.358 4.343 -6.234 # H2
160 54 1 0.41 -8.233 -3.383 -5.208 # H1
161 54 2 -0.82 -8.966 -3.981 -4.736 # O
162 54 1 0.41 -9.769 -3.433 -4.444 # H2
163 55 1 0.41 2.878 -4.054 -5.721 # H1
164 55 2 -0.82 2.213 -3.985 -6.488 # O
165 55 1 0.41 1.509 -4.702 -6.416 # H2
166 56 1 0.41 1.555 3.966 -6.322 # H1
167 56 2 -0.82 0.643 4.294 -6.630 # O
168 56 1 0.41 0.334 3.747 -7.439 # H2
169 57 1 0.41 3.453 -3.464 -7.871 # H1
170 57 2 -0.82 4.235 -3.338 -8.521 # O
171 57 1 0.41 4.712 -4.242 -8.674 # H2
172 58 1 0.41 -9.119 4.056 8.870 # H1
173 58 2 -0.82 -8.806 4.614 8.076 # O
174 58 1 0.41 -9.299 5.508 8.092 # H2
175 59 1 0.41 -7.036 -6.272 7.009 # H1
176 59 2 -0.82 -6.624 -5.521 7.593 # O
177 59 1 0.41 -7.096 -5.356 8.499 # H2
178 60 1 0.41 0.521 -2.898 -1.485 # H1
179 60 2 -0.82 1.105 -3.267 -0.736 # O
180 60 1 0.41 0.604 -3.398 0.116 # H2
181 61 1 0.41 -3.373 -2.976 0.786 # H1
182 61 2 -0.82 -3.407 -2.265 1.507 # O
183 61 1 0.41 -2.550 -1.767 1.692 # H2
184 62 1 0.41 -2.252 -4.819 6.399 # H1
185 62 2 -0.82 -1.298 -5.185 6.243 # O
186 62 1 0.41 -0.798 -5.310 7.112 # H2
187 63 1 0.41 -3.251 -0.261 -0.783 # H1
188 63 2 -0.82 -3.357 0.752 -0.837 # O
189 63 1 0.41 -3.920 1.016 -0.028 # H2
190 64 1 0.41 -3.166 -1.189 4.834 # H1
191 64 2 -0.82 -4.083 -0.946 5.203 # O
192 64 1 0.41 -4.086 -1.384 6.120 # H2
193 65 1 0.41 -2.138 -6.909 -3.124 # H1
194 65 2 -0.82 -2.998 -6.468 -2.729 # O
195 65 1 0.41 -3.125 -5.507 -3.021 # H2
196 66 1 0.41 -10.006 3.838 -7.296 # H1
197 66 2 -0.82 -9.106 3.858 -6.808 # O
198 66 1 0.41 -9.238 3.718 -5.802 # H2
199 67 1 0.41 5.048 -3.197 3.917 # H1
200 67 2 -0.82 6.012 -3.237 3.595 # O
201 67 1 0.41 5.883 -3.306 2.606 # H2
202 68 1 0.41 8.887 -4.864 -1.436 # H1
203 68 2 -0.82 8.783 -5.397 -2.279 # O
204 68 1 0.41 9.354 -4.868 -2.958 # H2
205 69 1 0.41 -6.098 -5.820 -4.308 # H1
206 69 2 -0.82 -6.329 -4.884 -4.035 # O
207 69 1 0.41 -7.348 -4.798 -4.158 # H2
208 70 1 0.41 2.053 -0.659 -7.121 # H1
209 70 2 -0.82 1.217 -1.245 -7.105 # O
210 70 1 0.41 1.335 -2.228 -6.975 # H2
211 71 1 0.41 3.100 -6.204 8.921 # H1
212 71 2 -0.82 2.145 -5.900 8.649 # O
213 71 1 0.41 2.274 -5.172 7.976 # H2
214 72 1 0.41 6.259 4.678 -2.580 # H1
215 72 2 -0.82 6.213 3.884 -1.918 # O
216 72 1 0.41 7.143 3.646 -1.595 # H2
217 73 1 0.41 -6.161 3.333 4.521 # H1
218 73 2 -0.82 -5.500 3.255 3.733 # O
219 73 1 0.41 -5.703 3.879 2.954 # H2
220 74 1 0.41 -2.166 9.106 -6.284 # H1
221 74 2 -0.82 -1.567 9.148 -7.141 # O
222 74 1 0.41 -0.608 9.371 -6.790 # H2
223 75 1 0.41 -6.525 -3.958 -2.086 # H1
224 75 2 -0.82 -7.208 -3.399 -1.618 # O
225 75 1 0.41 -6.802 -2.541 -1.264 # H2
226 76 1 0.41 7.100 7.386 -8.190 # H1
227 76 2 -0.82 7.107 6.788 -9.007 # O
228 76 1 0.41 7.765 7.179 -9.712 # H2
229 77 1 0.41 5.540 4.726 -0.323 # H1
230 77 2 -0.82 5.864 5.121 0.573 # O
231 77 1 0.41 6.302 4.375 1.103 # H2
232 78 1 0.41 -0.457 -1.885 3.844 # H1
233 78 2 -0.82 -0.758 -2.278 2.965 # O
234 78 1 0.41 -0.792 -3.285 2.900 # H2
235 79 1 0.41 2.470 1.224 -6.575 # H1
236 79 2 -0.82 3.008 0.971 -7.402 # O
237 79 1 0.41 4.005 1.176 -7.295 # H2
238 80 1 0.41 5.385 -6.565 10.233 # H1
239 80 2 -0.82 4.986 -6.393 9.313 # O
240 80 1 0.41 5.552 -6.886 8.621 # H2
241 81 1 0.41 -1.295 -2.710 -3.914 # H1
242 81 2 -0.82 -0.571 -2.481 -3.193 # O
243 81 1 0.41 0.257 -2.004 -3.543 # H2
244 82 1 0.41 -6.557 3.617 -0.392 # H1
245 82 2 -0.82 -7.329 3.916 -1.007 # O
246 82 1 0.41 -8.032 3.194 -1.088 # H2
247 83 1 0.41 6.056 -5.246 4.331 # H1
248 83 2 -0.82 6.458 -5.804 5.091 # O
249 83 1 0.41 6.447 -6.772 4.775 # H2
250 84 1 0.41 -6.337 -2.926 -8.908 # H1
251 84 2 -0.82 -5.991 -3.700 -8.342 # O
252 84 1 0.41 -5.398 -4.298 -8.896 # H2
253 85 1 0.41 -4.351 -8.840 5.416 # H1
254 85 2 -0.82 -4.695 -8.775 4.485 # O
255 85 1 0.41 -4.925 -7.798 4.210 # H2
256 86 1 0.41 9.114 -0.267 -5.345 # H1
257 86 2 -0.82 8.833 0.288 -4.531 # O
258 86 1 0.41 8.044 0.895 -4.740 # H2
259 87 1 0.41 1.397 0.821 7.403 # H1
260 87 2 -0.82 2.293 0.344 7.398 # O
261 87 1 0.41 2.804 0.548 8.279 # H2
262 88 1 0.41 -1.322 -5.909 2.975 # H1
263 88 2 -0.82 -0.989 -5.009 3.349 # O
264 88 1 0.41 -0.962 -5.111 4.341 # H2
265 89 1 0.41 -9.589 -7.998 3.796 # H1
266 89 2 -0.82 -8.585 -8.007 3.851 # O
267 89 1 0.41 -8.225 -8.576 3.080 # H2
268 90 1 0.41 -1.541 7.469 5.348 # H1
269 90 2 -0.82 -2.254 7.390 4.594 # O
270 90 1 0.41 -3.039 6.817 4.873 # H2
271 91 1 0.41 6.228 2.650 2.482 # H1
272 91 2 -0.82 6.963 3.373 2.438 # O
273 91 1 0.41 7.511 3.338 3.283 # H2
274 92 1 0.41 -6.605 5.962 1.275 # H1
275 92 2 -0.82 -5.859 5.637 1.869 # O
276 92 1 0.41 -5.403 6.425 2.325 # H2
277 93 1 0.41 0.916 5.916 2.612 # H1
278 93 2 -0.82 1.921 6.076 2.721 # O
279 93 1 0.41 2.239 6.433 3.653 # H2
280 94 1 0.41 2.061 -8.117 0.783 # H1
281 94 2 -0.82 2.764 -8.906 0.870 # O
282 94 1 0.41 2.285 -9.793 0.926 # H2
283 95 1 0.41 -1.458 -8.730 -0.824 # H1
284 95 2 -0.82 -1.436 -7.731 -0.552 # O
285 95 1 0.41 -2.266 -7.250 -0.869 # H2
286 96 1 0.41 6.760 6.585 -3.843 # H1
287 96 2 -0.82 6.246 5.730 -4.053 # O
288 96 1 0.41 5.957 5.757 -5.019 # H2
289 97 1 0.41 -5.124 -7.963 -4.236 # H1
290 97 2 -0.82 -5.925 -7.596 -4.758 # O
291 97 1 0.41 -5.567 -7.235 -5.664 # H2
292 98 1 0.41 3.757 -7.933 -7.028 # H1
293 98 2 -0.82 2.742 -8.009 -6.866 # O
294 98 1 0.41 2.576 -8.308 -5.898 # H2
295 99 1 0.41 0.462 5.900 -8.450 # H1
296 99 2 -0.82 0.554 6.526 -9.222 # O
297 99 1 0.41 -0.269 7.048 -9.472 # H2
298 100 1 0.41 1.642 -7.711 9.307 # H1
299 100 2 -0.82 1.259 -8.583 8.948 # O
300 100 1 0.41 0.473 -8.849 9.510 # H2
301 101 1 0.41 -3.774 -3.006 -3.920 # H1
302 101 2 -0.82 -3.956 -3.880 -3.418 # O
303 101 1 0.41 -4.732 -4.295 -3.911 # H2
304 102 1 0.41 -6.890 7.869 7.566 # H1
305 102 2 -0.82 -7.058 8.845 7.909 # O
306 102 1 0.41 -6.952 9.620 7.240 # H2
307 103 1 0.41 4.120 4.084 1.140 # H1
308 103 2 -0.82 3.123 4.049 1.199 # O
309 103 1 0.41 2.867 4.909 1.687 # H2
310 104 1 0.41 6.469 1.200 -5.757 # H1
311 104 2 -0.82 6.655 1.655 -4.873 # O
312 104 1 0.41 6.137 2.517 -4.824 # H2
313 105 1 0.41 4.231 7.593 -5.108 # H1
314 105 2 -0.82 4.965 8.300 -5.236 # O
315 105 1 0.41 5.150 8.325 -6.233 # H2
316 106 1 0.41 5.313 0.260 -4.056 # H1
317 106 2 -0.82 4.663 -0.404 -4.496 # O
318 106 1 0.41 4.910 -0.624 -5.442 # H2
319 107 1 0.41 1.162 -8.916 4.362 # H1
320 107 2 -0.82 1.467 -9.422 3.541 # O
321 107 1 0.41 2.267 -10.046 3.770 # H2
322 108 1 0.41 -6.741 -9.493 0.473 # H1
323 108 2 -0.82 -7.233 -8.935 1.194 # O
324 108 1 0.41 -8.254 -8.874 0.992 # H2
325 109 1 0.41 -2.372 6.844 9.555 # H1
326 109 2 -0.82 -2.164 7.837 9.474 # O
327 109 1 0.41 -1.976 8.190 10.409 # H2
328 110 1 0.41 4.954 -2.765 8.383 # H1
329 110 2 -0.82 5.631 -2.628 7.662 # O
330 110 1 0.41 6.560 -2.910 8.051 # H2
331 111 1 0.41 7.647 2.213 -9.272 # H1
332 111 2 -0.82 7.544 1.225 -9.227 # O
333 111 1 0.41 7.367 0.803 -10.128 # H2
334 112 1 0.41 -4.257 2.339 9.390 # H1
335 112 2 -0.82 -5.235 2.541 9.085 # O
336 112 1 0.41 -5.619 1.911 8.363 # H2
337 113 1 0.41 -3.401 -1.938 -5.490 # H1
338 113 2 -0.82 -2.538 -2.470 -5.441 # O
339 113 1 0.41 -1.732 -1.905 -5.625 # H2
340 114 1 0.41 -8.401 -0.290 -8.120 # H1
341 114 2 -0.82 -7.523 0.102 -8.391 # O
342 114 1 0.41 -7.319 1.018 -7.952 # H2
343 115 1 0.41 5.318 -4.773 0.356 # H1
344 115 2 -0.82 5.173 -3.841 0.719 # O
345 115 1 0.41 4.209 -3.673 1.058 # H2
346 116 1 0.41 -3.716 5.483 -8.795 # H1
347 116 2 -0.82 -2.743 5.174 -8.855 # O
348 116 1 0.41 -2.487 4.219 -9.116 # H2
349 117 1 0.41 7.806 -0.822 0.317 # H1
350 117 2 -0.82 8.799 -0.806 0.546 # O
351 117 1 0.41 8.938 -0.518 1.521 # H2
352 118 1 0.41 -3.169 -0.613 -8.560 # H1
353 118 2 -0.82 -3.859 0.043 -8.183 # O
354 118 1 0.41 -4.709 0.077 -8.739 # H2
355 119 1 0.41 -1.135 -8.239 -4.629 # H1
356 119 2 -0.82 -1.048 -7.245 -4.555 # O
357 119 1 0.41 -0.334 -6.888 -5.190 # H2
358 120 1 0.41 -8.325 5.461 -6.151 # H1
359 120 2 -0.82 -7.954 6.374 -5.845 # O
360 120 1 0.41 -7.535 6.272 -4.927 # H2
361 121 1 0.41 -6.839 0.502 -4.215 # H1
362 121 2 -0.82 -7.591 0.508 -3.534 # O
363 121 1 0.41 -8.527 0.576 -3.948 # H2
364 122 1 0.41 8.828 3.501 4.959 # H1
365 122 2 -0.82 8.711 2.633 4.493 # O
366 122 1 0.41 9.540 2.293 3.996 # H2
367 123 1 0.41 7.214 -6.224 -4.709 # H1
368 123 2 -0.82 6.689 -6.307 -3.849 # O
369 123 1 0.41 7.288 -6.010 -3.097 # H2
370 124 1 0.41 8.632 -8.036 0.666 # H1
371 124 2 -0.82 9.190 -8.871 0.564 # O
372 124 1 0.41 8.674 -9.685 0.924 # H2
373 125 1 0.41 -5.865 0.106 -0.637 # H1
374 125 2 -0.82 -6.360 -0.599 -1.223 # O
375 125 1 0.41 -6.763 -0.167 -2.043 # H2
376 126 1 0.41 -2.272 8.318 1.530 # H1
377 126 2 -0.82 -2.875 7.553 1.218 # O
378 126 1 0.41 -2.877 7.349 0.202 # H2
379 127 1 0.41 4.399 1.036 2.516 # H1
380 127 2 -0.82 3.538 0.983 3.102 # O
381 127 1 0.41 2.717 0.937 2.503 # H2
382 128 1 0.41 -6.454 -4.975 0.832 # H1
383 128 2 -0.82 -6.184 -5.683 0.159 # O
384 128 1 0.41 -6.481 -6.613 0.411 # H2
385 129 1 0.41 -4.002 -3.933 5.520 # H1
386 129 2 -0.82 -4.078 -4.302 6.481 # O
387 129 1 0.41 -4.773 -5.017 6.652 # H2
388 130 1 0.41 -1.735 8.178 -4.681 # H1
389 130 2 -0.82 -2.483 8.825 -4.752 # O
390 130 1 0.41 -3.258 8.650 -4.127 # H2
391 131 1 0.41 6.524 4.031 6.705 # H1
392 131 2 -0.82 6.392 4.353 7.655 # O
393 131 1 0.41 5.717 5.119 7.724 # H2
394 132 1 0.41 7.100 -1.126 7.596 # H1
395 132 2 -0.82 7.594 -0.295 7.271 # O
396 132 1 0.41 7.077 0.072 6.476 # H2
397 133 1 0.41 5.554 0.251 0.999 # H1
398 133 2 -0.82 5.918 1.059 1.522 # O
399 133 1 0.41 6.680 0.737 2.118 # H2
400 134 1 0.41 -5.985 6.628 -8.469 # H1
401 134 2 -0.82 -6.399 7.417 -7.944 # O
402 134 1 0.41 -7.019 7.103 -7.217 # H2
403 135 1 0.41 2.075 -1.044 -0.478 # H1
404 135 2 -0.82 2.601 -0.607 -1.225 # O
405 135 1 0.41 3.295 -0.010 -0.757 # H2
406 136 1 0.41 1.003 7.397 6.389 # H1
407 136 2 -0.82 0.072 7.721 6.154 # O
408 136 1 0.41 0.077 8.748 6.165 # H2
409 137 1 0.41 7.795 -0.561 -2.837 # H1
410 137 2 -0.82 6.939 -0.774 -2.286 # O
411 137 1 0.41 6.482 0.135 -2.205 # H2
412 138 1 0.41 -0.417 -1.287 -8.104 # H1
413 138 2 -0.82 -1.337 -1.591 -8.468 # O
414 138 1 0.41 -1.457 -2.571 -8.224 # H2
415 139 1 0.41 -8.406 0.545 3.029 # H1
416 139 2 -0.82 -8.747 -0.187 3.670 # O
417 139 1 0.41 -7.943 -0.730 3.974 # H2
418 140 1 0.41 -0.776 -4.697 9.666 # H1
419 140 2 -0.82 -0.434 -4.984 8.750 # O
420 140 1 0.41 0.469 -5.471 8.750 # H2
421 141 1 0.41 -8.425 -4.413 2.194 # H1
422 141 2 -0.82 -9.321 -4.407 1.721 # O
423 141 1 0.41 -9.393 -3.757 0.971 # H2
424 142 1 0.41 -7.583 9.687 -1.563 # H1
425 142 2 -0.82 -6.829 9.024 -1.736 # O
426 142 1 0.41 -7.070 8.079 -1.484 # H2
427 143 1 0.41 -5.949 -5.967 2.819 # H1
428 143 2 -0.82 -5.158 -6.544 3.073 # O
429 143 1 0.41 -5.108 -7.326 2.418 # H2
430 144 1 0.41 1.676 -6.672 -0.936 # H1
431 144 2 -0.82 1.131 -6.889 -0.082 # O
432 144 1 0.41 0.145 -7.073 -0.322 # H2
433 145 1 0.41 -8.677 -3.225 6.094 # H1
434 145 2 -0.82 -8.031 -3.138 6.939 # O
435 145 1 0.41 -7.638 -4.073 7.223 # H2
436 146 1 0.41 3.412 -2.856 5.183 # H1
437 146 2 -0.82 4.075 -3.623 5.285 # O
438 146 1 0.41 4.837 -3.318 5.857 # H2
439 147 1 0.41 -9.167 -8.351 -3.629 # H1
440 147 2 -0.82 -8.887 -8.312 -4.639 # O
441 147 1 0.41 -7.864 -8.318 -4.586 # H2
442 148 1 0.41 6.900 0.499 4.435 # H1
443 148 2 -0.82 6.596 0.968 5.327 # O
444 148 1 0.41 7.122 1.840 5.443 # H2
445 149 1 0.41 -0.075 5.810 -5.596 # H1
446 149 2 -0.82 0.137 6.638 -5.056 # O
447 149 1 0.41 0.164 6.393 -4.057 # H2
448 150 1 0.41 8.358 -7.032 7.218 # H1
449 150 2 -0.82 7.831 -6.179 7.359 # O
450 150 1 0.41 7.128 -6.092 6.580 # H2
451 151 1 0.41 2.968 6.535 -5.729 # H1
452 151 2 -0.82 3.350 6.186 -4.823 # O
453 151 1 0.41 2.662 6.263 -4.071 # H2
454 152 1 0.41 -5.975 -2.013 4.703 # H1
455 152 2 -0.82 -6.868 -1.539 4.912 # O
456 152 1 0.41 -7.205 -1.769 5.832 # H2
457 153 1 0.41 5.237 -2.000 0.442 # H1
458 153 2 -0.82 5.353 -1.087 0.059 # O
459 153 1 0.41 5.620 -1.093 -0.952 # H2
460 154 1 0.41 -9.767 -0.088 6.829 # H1
461 154 2 -0.82 -8.851 -0.050 6.387 # O
462 154 1 0.41 -8.887 -0.461 5.455 # H2
463 155 1 0.41 7.342 8.544 -2.543 # H1
464 155 2 -0.82 7.729 7.740 -3.085 # O
465 155 1 0.41 8.050 8.008 -3.998 # H2
466 156 1 0.41 3.381 -5.966 -2.174 # H1
467 156 2 -0.82 2.629 -6.606 -2.403 # O
468 156 1 0.41 2.962 -7.108 -3.235 # H2
469 157 1 0.41 -8.071 -1.441 -6.156 # H1
470 157 2 -0.82 -7.468 -2.241 -5.978 # O
471 157 1 0.41 -7.077 -2.544 -6.863 # H2
472 158 1 0.41 8.750 7.785 2.242 # H1
473 158 2 -0.82 9.105 8.251 3.064 # O
474 158 1 0.41 8.417 8.875 3.476 # H2
475 159 1 0.41 2.671 -0.289 5.775 # H1
476 159 2 -0.82 2.608 -1.108 5.108 # O
477 159 1 0.41 2.835 -0.854 4.156 # H2
478 160 1 0.41 6.561 -6.679 -0.822 # H1
479 160 2 -0.82 5.801 -6.177 -0.349 # O
480 160 1 0.41 5.260 -6.783 0.268 # H2
481 161 1 0.41 -7.783 2.984 -7.139 # H1
482 161 2 -0.82 -7.026 2.400 -7.453 # O
483 161 1 0.41 -6.382 2.895 -8.060 # H2
484 162 1 0.41 3.933 9.068 8.078 # H1
485 162 2 -0.82 4.180 8.403 7.324 # O
486 162 1 0.41 3.571 7.570 7.417 # H2
487 163 1 0.41 1.536 -6.713 -6.930 # H1
488 163 2 -0.82 0.688 -6.241 -6.601 # O
489 163 1 0.41 -0.004 -6.422 -7.297 # H2
490 164 1 0.41 -3.950 -7.918 -2.209 # H1
491 164 2 -0.82 -4.177 -8.760 -1.685 # O
492 164 1 0.41 -5.197 -8.914 -1.688 # H2
493 165 1 0.41 4.512 1.887 6.308 # H1
494 165 2 -0.82 3.912 2.362 5.655 # O
495 165 1 0.41 3.825 1.842 4.789 # H2
496 166 1 0.41 -2.660 3.293 -3.909 # H1
497 166 2 -0.82 -2.425 4.265 -3.859 # O
498 166 1 0.41 -2.775 4.816 -4.637 # H2
499 167 1 0.41 -5.359 -1.763 1.846 # H1
500 167 2 -0.82 -6.375 -1.791 1.871 # O
501 167 1 0.41 -6.809 -1.284 1.097 # H2
502 168 1 0.41 1.354 6.729 0.456 # H1
503 168 2 -0.82 1.237 7.554 -0.114 # O
504 168 1 0.41 0.261 7.639 -0.379 # H2
505 169 1 0.41 8.954 5.404 4.898 # H1
506 169 2 -0.82 8.087 5.232 5.436 # O
507 169 1 0.41 8.226 5.485 6.424 # H2
508 170 1 0.41 -2.806 -8.446 7.591 # H1
509 170 2 -0.82 -1.952 -7.948 7.894 # O
510 170 1 0.41 -1.430 -7.539 7.119 # H2
511 171 1 0.41 2.903 -3.591 -1.788 # H1
512 171 2 -0.82 3.892 -3.815 -1.814 # O
513 171 1 0.41 4.339 -3.508 -0.957 # H2
514 172 1 0.41 4.926 -6.024 -6.077 # H1
515 172 2 -0.82 5.305 -6.710 -6.724 # O
516 172 1 0.41 6.255 -6.882 -6.434 # H2
517 173 1 0.41 2.367 -3.766 1.747 # H1
518 173 2 -0.82 2.885 -2.903 1.650 # O
519 173 1 0.41 2.380 -2.178 1.178 # H2
520 174 1 0.41 7.352 -2.489 -2.579 # H1
521 174 2 -0.82 7.152 -3.102 -3.373 # O
522 174 1 0.41 6.094 -3.208 -3.433 # H2
523 175 1 0.41 -3.067 4.698 5.221 # H1
524 175 2 -0.82 -3.967 4.940 5.659 # O
525 175 1 0.41 -4.627 4.246 5.377 # H2
526 176 1 0.41 -1.410 0.725 4.230 # H1
527 176 2 -0.82 -1.097 0.993 5.165 # O
528 176 1 0.41 -0.711 0.167 5.619 # H2
529 177 1 0.41 6.624 -8.490 3.602 # H1
530 177 2 -0.82 7.587 -8.257 3.286 # O
531 177 1 0.41 7.629 -7.539 2.555 # H2
532 178 1 0.41 -1.142 0.080 -4.677 # H1
533 178 2 -0.82 -0.879 -0.057 -5.630 # O
534 178 1 0.41 0.109 -0.120 -5.832 # H2
535 179 1 0.41 -4.725 -4.536 -0.565 # H1
536 179 2 -0.82 -3.975 -3.884 -0.791 # O
537 179 1 0.41 -3.804 -3.836 -1.785 # H2
538 180 1 0.41 -7.159 -7.747 -7.183 # H1
539 180 2 -0.82 -8.184 -7.644 -7.118 # O
540 180 1 0.41 -8.654 -7.885 -6.246 # H2
541 181 1 0.41 -7.265 3.907 6.694 # H1
542 181 2 -0.82 -6.511 3.489 6.147 # O
543 181 1 0.41 -6.308 2.602 6.558 # H2
544 182 1 0.41 0.885 4.872 -2.340 # H1
545 182 2 -0.82 -0.016 5.302 -2.603 # O
546 182 1 0.41 -0.772 4.678 -2.915 # H2
547 183 1 0.41 -4.648 -7.858 -7.568 # H1
548 183 2 -0.82 -5.063 -6.989 -7.227 # O
549 183 1 0.41 -4.862 -6.164 -7.869 # H2
550 184 1 0.41 5.825 -3.037 -5.756 # H1
551 184 2 -0.82 5.757 -2.330 -6.493 # O
552 184 1 0.41 5.121 -2.665 -7.234 # H2
553 185 1 0.41 1.482 -7.680 6.083 # H1
554 185 2 -0.82 0.950 -8.503 6.279 # O
555 185 1 0.41 0.836 -8.652 7.293 # H2
556 186 1 0.41 3.705 6.729 -7.517 # H1
557 186 2 -0.82 2.938 7.293 -7.139 # O
558 186 1 0.41 2.217 7.443 -7.851 # H2
559 187 1 0.41 -8.534 7.879 4.056 # H1
560 187 2 -0.82 -7.602 7.608 4.428 # O
561 187 1 0.41 -6.833 7.970 3.881 # H2
562 188 1 0.41 8.764 -4.243 -8.178 # H1
563 188 2 -0.82 9.011 -3.258 -8.196 # O
564 188 1 0.41 8.655 -2.817 -9.046 # H2
565 189 1 0.41 -2.731 0.425 2.362 # H1
566 189 2 -0.82 -1.710 0.515 2.227 # O
567 189 1 0.41 -1.516 1.355 1.701 # H2
568 190 1 0.41 9.214 -3.581 7.445 # H1
569 190 2 -0.82 8.278 -3.661 7.810 # O
570 190 1 0.41 8.086 -4.661 7.880 # H2
571 191 1 0.41 2.900 5.774 6.892 # H1
572 191 2 -0.82 2.826 6.120 7.848 # O
573 191 1 0.41 1.899 5.968 8.251 # H2
574 192 1 0.41 -4.230 -9.630 -9.291 # H1
575 192 2 -0.82 -4.562 -9.459 -8.337 # O
576 192 1 0.41 -5.291 -10.131 -8.061 # H2
577 193 1 0.41 5.877 8.222 6.864 # H1
578 193 2 -0.82 6.696 7.907 6.388 # O
579 193 1 0.41 6.456 7.378 5.545 # H2
580 194 1 0.41 -4.457 1.846 3.449 # H1
581 194 2 -0.82 -4.275 0.910 3.125 # O
582 194 1 0.41 -4.504 0.292 3.919 # H2
583 195 1 0.41 -7.199 -0.957 9.240 # H1
584 195 2 -0.82 -6.805 -1.821 8.834 # O
585 195 1 0.41 -7.443 -2.218 8.155 # H2
586 196 1 0.41 -10.078 3.307 -3.560 # H1
587 196 2 -0.82 -9.240 3.366 -4.127 # O
588 196 1 0.41 -8.291 3.137 -3.805 # H2
589 197 1 0.41 9.155 -7.219 -8.672 # H1
590 197 2 -0.82 8.169 -6.989 -8.861 # O
591 197 1 0.41 8.156 -6.817 -9.871 # H2
592 198 1 0.41 6.043 -8.088 -3.244 # H1
593 198 2 -0.82 6.140 -8.977 -2.772 # O
594 198 1 0.41 5.712 -9.735 -3.280 # H2
595 199 1 0.41 1.422 1.914 -8.332 # H1
596 199 2 -0.82 0.712 2.474 -8.838 # O
597 199 1 0.41 0.187 1.925 -9.514 # H2
598 200 1 0.41 1.295 -5.818 1.209 # H1
599 200 2 -0.82 1.418 -5.195 2.013 # O
600 200 1 0.41 0.585 -5.271 2.610 # H2
601 201 1 0.41 -6.472 4.982 -2.483 # H1
602 201 2 -0.82 -6.821 5.577 -3.238 # O
603 201 1 0.41 -7.825 5.812 -3.078 # H2
604 202 1 0.41 -6.109 -8.212 5.497 # H1
605 202 2 -0.82 -6.907 -8.033 6.094 # O
606 202 1 0.41 -7.763 -8.014 5.533 # H2
607 203 1 0.41 -8.311 8.356 -8.424 # H1
608 203 2 -0.82 -8.885 8.679 -9.184 # O
609 203 1 0.41 -8.305 9.015 -9.953 # H2
610 204 1 0.41 -1.161 4.472 4.823 # H1
611 204 2 -0.82 -1.508 3.945 4.031 # O
612 204 1 0.41 -1.072 3.058 4.094 # H2
613 205 1 0.41 -6.627 6.981 5.790 # H1
614 205 2 -0.82 -6.099 6.568 6.563 # O
615 205 1 0.41 -5.242 6.179 6.183 # H2
616 206 1 0.41 10.224 -3.238 -1.203 # H1
617 206 2 -0.82 9.267 -3.135 -0.803 # O
618 206 1 0.41 9.083 -2.278 -0.265 # H2
619 207 1 0.41 -2.617 3.835 -2.258 # H1
620 207 2 -0.82 -2.540 3.150 -1.495 # O
621 207 1 0.41 -2.825 2.205 -1.731 # H2
622 208 1 0.41 -8.224 6.416 -0.485 # H1
623 208 2 -0.82 -8.059 6.975 0.363 # O
624 208 1 0.41 -8.609 7.862 0.351 # H2
625 209 1 0.41 -5.216 2.347 0.533 # H1
626 209 2 -0.82 -5.555 1.416 0.764 # O
627 209 1 0.41 -5.169 1.119 1.681 # H2
628 210 1 0.41 -8.318 0.979 -1.896 # H1
629 210 2 -0.82 -8.908 1.383 -1.132 # O
630 210 1 0.41 -8.928 0.843 -0.278 # H2
631 211 1 0.41 2.629 -9.257 -3.514 # H1
632 211 2 -0.82 3.086 -8.570 -4.100 # O
633 211 1 0.41 3.859 -8.923 -4.650 # H2
634 212 1 0.41 -4.555 4.391 0.928 # H1
635 212 2 -0.82 -4.734 3.862 0.033 # O
636 212 1 0.41 -3.901 3.804 -0.626 # H2
637 213 1 0.41 7.325 3.914 -9.672 # H1
638 213 2 -0.82 7.596 4.193 -8.714 # O
639 213 1 0.41 7.578 5.214 -8.665 # H2
640 214 1 0.41 -1.582 -7.668 -9.152 # H1
641 214 2 -0.82 -1.956 -7.406 -8.243 # O
642 214 1 0.41 -2.074 -8.242 -7.685 # H2
643 215 1 0.41 4.503 -9.008 0.158 # H1
644 215 2 -0.82 5.506 -8.982 -0.102 # O
645 215 1 0.41 5.559 -9.016 -1.129 # H2
646 216 1 0.41 5.560 -5.328 -4.127 # H1
647 216 2 -0.82 4.806 -4.699 -4.434 # O
648 216 1 0.41 4.318 -4.385 -3.579 # H2

Bonds

1 1 2 1 # O H1
2 1 2 3 # O H2
3 1 5 4 # O H1
4 1 5 6 # O H2
5 1 8 7 # O H1
6 1 8 9 # O H2
7 1 11 10 # O H1
8 1 11 12 # O H2
9 1 14 13 # O H1
10 1 14 15 # O H2
11 1 17 16 # O H1
12 1 17 18 # O H2
13 1 20 19 # O H1
14 1 20 21 # O H2
15 1 23 22 # O H1
16 1 23 24 # O H2
17 1 26 25 # O H1
18 1 26 27 # O H2
19 1 29 28 # O H1
20 1 29 30 # O H2
21 1 32 31 # O H1
22 1 32 33 # O H2
23 1 35 34 # O H1
24 1 35 36 # O H2
25 1 38 37 # O H1
26 1 38 39 # O H2
27 1 41 40 # O H1
28 1 41 42 # O H2
29 1 44 43 # O H1
30 1 44 45 # O H2
31 1 47 46 # O H1
32 1 47 48 # O H2
33 1 50 49 # O H1
34 1 50 51 # O H2
35 1 53 52 # O H1
36 1 53 54 # O H2
37 1 56 55 # O H1
38 1 56 57 # O H2
39 1 59 58 # O H1
40 1 59 60 # O H2
41 1 62 61 # O H1
42 1 62 63 # O H2
43 1 65 64 # O H1
44 1 65 66 # O H2
45 1 68 67 # O H1
46 1 68 69 # O H2
47 1 71 70 # O H1
48 1 71 72 # O H2
49 1 74 73 # O H1
50 1 74 75 # O H2
51 1 77 76 # O H1
52 1 77 78 # O H2
53 1 80 79 # O H1
54 1 80 81 # O H2
55 1 83 82 # O H1
56 1 83 84 # O H2
57 1 86 85 # O H1
58 1 86 87 # O H2
59 1 89 88 # O H1
60 1 89 90 # O H2
61 1 92 91 # O H1
62 1 92 93 # O H2
63 1 95 94 # O H1
64 1 95 96 # O H2
65 1 98 97 # O H1
66 1 98 99 # O H2
67 1 101 100 # O H1
68 1 101 102 # O H2
69 1 104 103 # O H1
70 1 104 105 # O H2
71 1 107 106 # O H1
72 1 107 108 # O H2
73 1 110 109 # O H1
74 1 110 111 # O H2
75 1 113 112 # O H1
76 1 113 114 # O H2
77 1 116 115 # O H1
78 1 116 117 # O H2
79 1 119 118 # O H1
80 1 119 120 # O H2
81 1 122 121 # O H1
82 1 122 123 # O H2
83 1 125 124 # O H1
84 1 125 126 # O H2
85 1 128 127 # O H1
86 1 128 129 # O H2
87 1 131 130 # O H1
88 1 131 132 # O H2
89 1 134 133 # O H1
90 1 134 135 # O H2
91 1 137 136 # O H1
92 1 137 138 # O H2
93 1 140 139 # O H1
94 1 140 141 # O H2
95 1 143 142 # O H1
96 1 143 144 # O H2
97 1 146 145 # O H1
98 1 146 147 # O H2
99 1 149 148 # O H1
100 1 149 150 # O H2
101 1 152 151 # O H1
102 1 152 153 # O H2
103 1 155 154 # O H1
104 1 155 156 # O H2
105 1 158 157 # O H1
106 1 158 159 # O H2
107 1 161 160 # O H1
108 1 161 162 # O H2
109 1 164 163 # O H1
110 1 164 165 # O H2
111 1 167 166 # O H1
112 1 167 168 # O H2
113 1 170 169 # O H1
114 1 170 171 # O H2
115 1 173 172 # O H1
116 1 173 174 # O H2
117 1 176 175 # O H1
118 1 176 177 # O H2
119 1 179 178 # O H1
120 1 179 180 # O H2
121 1 182 181 # O H1
122 1 182 183 # O H2
123 1 185 184 # O H1
124 1 185 186 # O H2
125 1 188 187 # O H1
126 1 188 189 # O H2
127 1 191 190 # O H1
128 1 191 192 # O H2
129 1 194 193 # O H1
130 1 194 195 # O H2
131 1 197 196 # O H1
132 1 197 198 # O H2
133 1 200 199 # O H1
134 1 200 201 # O H2
135 1 203 202 # O H1
136 1 203 204 # O H2
137 1 206 205 # O H1
138 1 206 207 # O H2
139 1 209 208 # O H1
140 1 209 210 # O H2
141 1 212 211 # O H1
142 1 212 213 # O H2
143 1 215 214 # O H1
144 1 215 216 # O H2
145 1 218 217 # O H1
146 1 218 219 # O H2
147 1 221 220 # O H1
148 1 221 222 # O H2
149 1 224 223 # O H1
150 1 224 225 # O H2
151 1 227 226 # O H1
152 1 227 228 # O H2
153 1 230 229 # O H1
154 1 230 231 # O H2
155 1 233 232 # O H1
156 1 233 234 # O H2
157 1 236 235 # O H1
158 1 236 237 # O H2
159 1 239 238 # O H1
160 1 239 240 # O H2
161 1 242 241 # O H1
162 1 242 243 # O H2
163 1 245 244 # O H1
164 1 245 246 # O H2
165 1 248 247 # O H1
166 1 248 249 # O H2
167 1 251 250 # O H1
168 1 251 252 # O H2
169 1 254 253 # O H1
170 1 254 255 # O H2
171 1 257 256 # O H1
172 1 257 258 # O H2
173 1 260 259 # O H1
174 1 260 261 # O H2
175 1 263 262 # O H1
176 1 263 264 # O H2
177 1 266 265 # O H1
178 1 266 267 # O H2
179 1 269 268 # O H1
180 1 269 270 # O H2
181 1 272 271 # O H1
182 1 272 273 # O H2
183 1 275 274 # O H1
184 1 275 276 # O H2
185 1 278 277 # O H1
186 1 278 279 # O H2
187 1 281 280 # O H1
188 1 281 282 # O H2
189 1 284 283 # O H1
190 1 284 285 # O H2
191 1 287 286 # O H1
192 1 287 288 # O H2
193 1 290 289 # O H1
194 1 290 291 # O H2
195 1 293 292 # O H1
196 1 293 294 # O H2
197 1 296 295 # O H1
198 1 296 297 # O H2
199 1 299 298 # O H1
200 1 299 300 # O H2
201 1 302 301 # O H1
202 1 302 303 # O H2
203 1 305 304 # O H1
204 1 305 306 # O H2
205 1 308 307 # O H1
206 1 308 309 # O H2
207 1 311 310 # O H1
208 1 311 312 # O H2
209 1 314 313 # O H1
210 1 314 315 # O H2
211 1 317 316 # O H1
212 1 317 318 # O H2
213 1 320 319 # O H1
214 1 320 321 # O H2
215 1 323 322 # O H1
216 1 323 324 # O H2
217 1 326 325 # O H1
218 1 326 327 # O H2
219 1 329 328 # O H1