LAMMPS data file
# Generated by Playmol on 3-Mar-2020 at 14:09:41

2 atom types
1 bond types
1 angle types

1536 atoms
1024 bonds
512 angles

-12.567 12.567 xlo xhi
-12.567 12.567 ylo yhi
-12.567 12.567 zlo zhi

Masses

1 1.00790000 # HW
2 15.9994001 # OW

# Elements: H O

Pair Coeffs # lj/cut/coul/long

1 0.0000 0.0000 # HW
2 0.1554252 3.165492 # OW

Bond Coeffs # harmonic

1 529.5810 1.012 # HW OW

Angle Coeffs # harmonic

1 37.9500 113.24 # HW OW HW

Atoms

1 1 1 0.41 10.021 2.568 12.705 # H1
2 1 2 -0.82 9.263 3.002 12.176 # O
3 1 1 0.41 9.056 3.908 12.662 # H2
4 2 1 0.41 -10.447 -9.026 0.039 # H1
5 2 2 -0.82 -10.500 -8.289 0.758 # O
6 2 1 0.41 -11.184 -8.446 1.483 # H2
7 3 1 0.41 1.978 -2.094 11.155 # H1
8 3 2 -0.82 1.803 -2.757 11.908 # O
9 3 1 0.41 0.963 -3.344 11.816 # H2
10 4 1 0.41 4.645 7.803 8.135 # H1
11 4 2 -0.82 4.223 7.306 7.368 # O
12 4 1 0.41 4.805 7.445 6.535 # H2
13 5 1 0.41 -6.131 -6.066 -12.011 # H1
14 5 2 -0.82 -5.491 -6.811 -11.759 # O
15 5 1 0.41 -5.643 -7.154 -10.812 # H2
16 6 1 0.41 -3.288 9.454 -6.674 # H1
17 6 2 -0.82 -3.888 8.678 -7.005 # O
18 6 1 0.41 -4.835 8.859 -6.615 # H2
19 7 1 0.41 0.255 -0.872 -11.340 # H1
20 7 2 -0.82 0.813 -0.262 -10.770 # O
21 7 1 0.41 0.890 -0.656 -9.832 # H2
22 8 1 0.41 -1.677 6.964 -1.337 # H1
23 8 2 -0.82 -2.461 6.371 -1.072 # O
24 8 1 0.41 -2.988 6.165 -1.944 # H2
25 9 1 0.41 1.129 4.995 -6.374 # H1
26 9 2 -0.82 0.654 5.319 -5.558 # O
27 9 1 0.41 0.065 4.597 -5.162 # H2
28 10 1 0.41 -7.340 -9.569 11.368 # H1
29 10 2 -0.82 -7.782 -9.124 10.571 # O
30 10 1 0.41 -7.040 -8.791 9.981 # H2
31 11 1 0.41 -7.416 -8.171 -9.894 # H1
32 11 2 -0.82 -6.420 -8.275 -9.650 # O
33 11 1 0.41 -6.220 -9.292 -9.697 # H2
34 12 1 0.41 12.012 2.767 -8.426 # H1
35 12 2 -0.82 12.175 3.639 -8.893 # O
36 12 1 0.41 11.770 3.522 -9.830 # H2
37 13 1 0.41 6.697 6.601 5.380 # H1
38 13 2 -0.82 6.463 7.582 5.555 # O
39 13 1 0.41 7.294 8.074 5.876 # H2
40 14 1 0.41 -5.965 9.261 2.872 # H1
41 14 2 -0.82 -5.840 10.021 2.242 # O
42 14 1 0.41 -5.595 9.814 1.286 # H2
43 15 1 0.41 -1.590 2.887 -5.471 # H1
44 15 2 -0.82 -0.595 2.783 -5.698 # O
45 15 1 0.41 -0.414 3.102 -6.622 # H2
46 16 1 0.41 -7.221 -4.238 5.889 # H1
47 16 2 -0.82 -6.237 -4.243 6.083 # O
48 16 1 0.41 -5.973 -5.222 6.176 # H2
49 17 1 0.41 -8.515 9.829 10.469 # H1
50 17 2 -0.82 -7.964 9.547 9.631 # O
51 17 1 0.41 -8.619 9.686 8.869 # H2
52 18 1 0.41 -11.057 -9.815 9.971 # H1
53 18 2 -0.82 -10.627 -9.755 10.947 # O
54 18 1 0.41 -9.618 -9.635 10.855 # H2
55 19 1 0.41 -5.507 10.536 -9.364 # H1
56 19 2 -0.82 -5.734 11.218 -8.619 # O
57 19 1 0.41 -5.514 10.752 -7.746 # H2
58 20 1 0.41 2.128 -11.932 8.078 # H1
59 20 2 -0.82 2.943 -11.683 8.642 # O
60 20 1 0.41 3.298 -12.510 9.118 # H2
61 21 1 0.41 -9.600 -8.614 -6.024 # H1
62 21 2 -0.82 -9.652 -9.018 -5.080 # O
63 21 1 0.41 -8.738 -9.054 -4.633 # H2
64 22 1 0.41 6.061 4.417 5.351 # H1
65 22 2 -0.82 6.861 5.012 5.521 # O
66 22 1 0.41 7.719 4.473 5.350 # H2
67 23 1 0.41 6.208 -6.704 -4.201 # H1
68 23 2 -0.82 5.283 -6.396 -3.971 # O
69 23 1 0.41 4.905 -5.833 -4.730 # H2
70 24 1 0.41 5.633 2.878 -1.566 # H1
71 24 2 -0.82 5.627 3.802 -1.164 # O
72 24 1 0.41 5.983 4.568 -1.781 # H2
73 25 1 0.41 -7.384 -12.619 -2.482 # H1
74 25 2 -0.82 -6.573 -12.022 -2.609 # O
75 25 1 0.41 -5.772 -12.298 -2.034 # H2
76 26 1 0.41 -0.047 -1.089 -0.031 # H1
77 26 2 -0.82 0.770 -1.495 -0.458 # O
78 26 1 0.41 0.768 -1.322 -1.488 # H2
79 27 1 0.41 -2.743 6.937 9.191 # H1
80 27 2 -0.82 -3.599 7.022 8.644 # O
81 27 1 0.41 -4.327 7.545 9.112 # H2
82 28 1 0.41 9.046 11.693 -13.262 # H1
83 28 2 -0.82 8.497 12.119 -12.563 # O
84 28 1 0.41 7.720 12.609 -13.003 # H2
85 29 1 0.41 -3.599 9.528 7.936 # H1
86 29 2 -0.82 -3.697 10.404 7.429 # O
87 29 1 0.41 -4.218 10.474 6.549 # H2
88 30 1 0.41 -6.807 3.580 -6.715 # H1
89 30 2 -0.82 -6.410 2.777 -6.233 # O
90 30 1 0.41 -7.021 2.435 -5.490 # H2
91 31 1 0.41 2.924 3.317 2.903 # H1
92 31 2 -0.82 3.684 2.741 3.242 # O
93 31 1 0.41 3.674 1.865 2.684 # H2
94 32 1 0.41 11.031 -5.085 -5.658 # H1
95 32 2 -0.82 11.923 -5.295 -5.179 # O
96 32 1 0.41 11.925 -6.180 -4.620 # H2
97 33 1 0.41 1.899 5.998 -8.051 # H1
98 33 2 -0.82 1.576 5.101 -8.372 # O
99 33 1 0.41 1.743 5.093 -9.380 # H2
100 34 1 0.41 2.477 -5.237 1.428 # H1
101 34 2 -0.82 2.187 -6.222 1.424 # O
102 34 1 0.41 1.183 -6.226 1.231 # H2
103 35 1 0.41 -10.320 7.425 9.272 # H1
104 35 2 -0.82 -11.154 7.992 9.139 # O
105 35 1 0.41 -11.108 8.644 8.359 # H2
106 36 1 0.41 10.856 5.439 2.510 # H1
107 36 2 -0.82 10.380 5.836 3.316 # O
108 36 1 0.41 10.911 5.697 4.192 # H2
109 37 1 0.41 10.967 5.764 -1.796 # H1
110 37 2 -0.82 11.762 6.307 -2.151 # O
111 37 1 0.41 11.650 6.684 -3.081 # H2
112 38 1 0.41 -0.492 -0.649 -5.692 # H1
113 38 2 -0.82 0.086 -0.036 -5.157 # O
114 38 1 0.41 -0.283 0.917 -5.297 # H2
115 39 1 0.41 -6.284 -10.536 -3.650 # H1
116 39 2 -0.82 -6.570 -9.555 -3.894 # O
117 39 1 0.41 -6.232 -9.320 -4.848 # H2
118 40 1 0.41 11.807 6.511 10.115 # H1
119 40 2 -0.82 11.254 5.702 10.330 # O
120 40 1 0.41 11.440 5.449 11.302 # H2
121 41 1 0.41 -0.286 -5.760 11.448 # H1
122 41 2 -0.82 0.329 -5.356 12.137 # O
123 41 1 0.41 1.065 -5.999 12.432 # H2
124 42 1 0.41 7.947 10.954 -9.578 # H1
125 42 2 -0.82 7.826 11.813 -10.054 # O
126 42 1 0.41 7.989 11.767 -11.049 # H2
127 43 1 0.41 9.987 7.373 -7.217 # H1
128 43 2 -0.82 9.582 8.251 -6.935 # O
129 43 1 0.41 10.153 8.940 -6.454 # H2
130 44 1 0.41 -2.782 6.083 -9.306 # H1
131 44 2 -0.82 -3.677 6.365 -8.891 # O
132 44 1 0.41 -3.623 7.239 -8.337 # H2
133 45 1 0.41 -7.454 6.396 6.460 # H1
134 45 2 -0.82 -7.975 5.834 5.816 # O
135 45 1 0.41 -7.426 5.305 5.138 # H2
136 46 1 0.41 8.323 11.144 -1.021 # H1
137 46 2 -0.82 7.466 10.994 -1.549 # O
138 46 1 0.41 7.593 11.018 -2.563 # H2
139 47 1 0.41 7.030 2.532 -5.545 # H1
140 47 2 -0.82 6.116 2.048 -5.616 # O
141 47 1 0.41 5.436 2.685 -6.081 # H2
142 48 1 0.41 -5.410 -3.349 -4.106 # H1
143 48 2 -0.82 -5.127 -3.233 -3.120 # O
144 48 1 0.41 -5.050 -4.134 -2.662 # H2
145 49 1 0.41 7.875 2.486 1.137 # H1
146 49 2 -0.82 8.811 2.124 0.889 # O
147 49 1 0.41 9.321 2.035 1.763 # H2
148 50 1 0.41 2.726 7.404 -0.309 # H1
149 50 2 -0.82 2.846 6.483 -0.750 # O
150 50 1 0.41 3.538 5.882 -0.288 # H2
151 51 1 0.41 4.671 -3.762 -1.441 # H1
152 51 2 -0.82 4.402 -2.899 -1.003 # O
153 51 1 0.41 4.184 -2.311 -1.784 # H2
154 52 1 0.41 -3.522 8.151 -4.226 # H1
155 52 2 -0.82 -2.824 8.063 -3.493 # O
156 52 1 0.41 -2.596 9.015 -3.172 # H2
157 53 1 0.41 5.348 7.995 2.768 # H1
158 53 2 -0.82 4.957 7.054 2.903 # O
159 53 1 0.41 5.735 6.415 2.708 # H2
160 54 1 0.41 4.245 -8.642 5.812 # H1
161 54 2 -0.82 4.544 -7.832 5.274 # O
162 54 1 0.41 3.975 -7.071 5.654 # H2
163 55 1 0.41 -9.564 9.427 6.118 # H1
164 55 2 -0.82 -9.316 9.886 6.989 # O
165 55 1 0.41 -9.104 10.888 6.842 # H2
166 56 1 0.41 -11.571 -2.788 9.987 # H1
167 56 2 -0.82 -11.401 -3.311 9.069 # O
168 56 1 0.41 -11.986 -2.871 8.352 # H2
169 57 1 0.41 6.376 -6.019 1.627 # H1
170 57 2 -0.82 6.507 -5.552 0.717 # O
171 57 1 0.41 5.678 -5.025 0.478 # H2
172 58 1 0.41 -8.862 -0.713 -8.316 # H1
173 58 2 -0.82 -9.766 -0.922 -8.768 # O
174 58 1 0.41 -9.701 -1.450 -9.636 # H2
175 59 1 0.41 -8.615 13.485 6.757 # H1
176 59 2 -0.82 -8.270 12.535 7.016 # O
177 59 1 0.41 -7.849 12.637 7.944 # H2
178 60 1 0.41 13.024 8.351 -6.740 # H1
179 60 2 -0.82 12.517 7.586 -7.181 # O
180 60 1 0.41 13.119 6.785 -7.448 # H2
181 61 1 0.41 -1.597 -1.707 -8.112 # H1
182 61 2 -0.82 -1.479 -1.672 -7.055 # O
183 61 1 0.41 -1.896 -2.471 -6.599 # H2
184 62 1 0.41 2.136 -10.322 3.480 # H1
185 62 2 -0.82 2.168 -11.363 3.605 # O
186 62 1 0.41 1.221 -11.748 3.753 # H2
187 63 1 0.41 -10.280 10.986 0.236 # H1
188 63 2 -0.82 -9.666 10.173 0.279 # O
189 63 1 0.41 -8.981 10.148 -0.483 # H2
190 64 1 0.41 10.297 10.227 -3.941 # H1
191 64 2 -0.82 9.834 9.699 -4.692 # O
192 64 1 0.41 8.833 9.880 -4.725 # H2
193 65 1 0.41 -11.232 9.193 -2.596 # H1
194 65 2 -0.82 -11.319 10.016 -3.214 # O
195 65 1 0.41 -11.399 9.853 -4.241 # H2
196 66 1 0.41 4.291 3.076 11.707 # H1
197 66 2 -0.82 4.042 3.551 10.797 # O
198 66 1 0.41 4.707 4.308 10.601 # H2
199 67 1 0.41 7.244 -5.815 -9.776 # H1
200 67 2 -0.82 8.133 -5.395 -10.102 # O
201 67 1 0.41 8.299 -4.497 -9.610 # H2
202 68 1 0.41 7.984 1.061 5.036 # H1
203 68 2 -0.82 8.560 1.912 5.061 # O
204 68 1 0.41 9.199 1.867 4.252 # H2
205 69 1 0.41 -3.870 -0.372 8.222 # H1
206 69 2 -0.82 -3.650 -0.306 9.210 # O
207 69 1 0.41 -4.050 -1.072 9.746 # H2
208 70 1 0.41 -7.162 12.753 -5.312 # H1
209 70 2 -0.82 -8.046 12.378 -5.644 # O
210 70 1 0.41 -8.697 12.231 -4.879 # H2
211 71 1 0.41 -5.051 -10.995 -10.697 # H1
212 71 2 -0.82 -4.225 -11.101 -10.098 # O
213 71 1 0.41 -4.546 -11.634 -9.284 # H2
214 72 1 0.41 -6.448 0.504 -7.853 # H1
215 72 2 -0.82 -7.315 0.085 -7.543 # O
216 72 1 0.41 -7.553 0.357 -6.586 # H2
217 73 1 0.41 6.462 -9.448 -9.899 # H1
218 73 2 -0.82 6.118 -8.667 -10.500 # O
219 73 1 0.41 6.783 -8.476 -11.251 # H2
220 74 1 0.41 -1.302 10.898 6.587 # H1
221 74 2 -0.82 -0.518 10.286 6.688 # O
222 74 1 0.41 -0.506 9.621 5.936 # H2
223 75 1 0.41 -8.980 -6.382 3.790 # H1
224 75 2 -0.82 -9.433 -6.980 4.509 # O
225 75 1 0.41 -8.823 -7.135 5.309 # H2
226 76 1 0.41 0.385 -4.536 -7.748 # H1
227 76 2 -0.82 -0.580 -4.705 -7.542 # O
228 76 1 0.41 -0.574 -5.527 -6.942 # H2
229 77 1 0.41 -6.552 11.501 9.178 # H1
230 77 2 -0.82 -6.736 12.490 9.092 # O
231 77 1 0.41 -5.866 12.930 9.356 # H2
232 78 1 0.41 -11.256 8.142 4.727 # H1
233 78 2 -0.82 -12.250 8.377 4.871 # O
234 78 1 0.41 -12.700 7.613 5.334 # H2
235 79 1 0.41 6.668 9.107 -8.403 # H1
236 79 2 -0.82 7.468 9.362 -8.969 # O
237 79 1 0.41 8.283 8.892 -8.661 # H2
238 80 1 0.41 2.060 -12.143 -3.105 # H1
239 80 2 -0.82 1.389 -11.645 -2.522 # O
240 80 1 0.41 1.243 -10.687 -2.818 # H2
241 81 1 0.41 12.124 1.149 7.185 # H1
242 81 2 -0.82 11.832 1.592 6.319 # O
243 81 1 0.41 10.893 1.991 6.371 # H2
244 82 1 0.41 6.873 5.824 11.702 # H1
245 82 2 -0.82 6.362 6.605 12.098 # O
246 82 1 0.41 7.019 7.273 12.518 # H2
247 83 1 0.41 1.539 -1.605 8.598 # H1
248 83 2 -0.82 1.199 -2.202 7.880 # O
249 83 1 0.41 0.302 -1.883 7.565 # H2
250 84 1 0.41 3.581 3.600 6.308 # H1
251 84 2 -0.82 4.450 3.564 5.788 # O
252 84 1 0.41 4.355 3.269 4.830 # H2
253 85 1 0.41 8.980 4.810 -0.212 # H1
254 85 2 -0.82 9.608 5.374 -0.732 # O
255 85 1 0.41 9.836 6.263 -0.254 # H2
256 86 1 0.41 7.935 -10.106 10.344 # H1
257 86 2 -0.82 7.177 -9.420 10.477 # O
258 86 1 0.41 6.495 -9.459 9.712 # H2
259 87 1 0.41 -9.910 -4.591 -9.995 # H1
260 87 2 -0.82 -10.066 -4.968 -10.943 # O
261 87 1 0.41 -11.001 -5.270 -11.098 # H2
262 88 1 0.41 2.457 -3.837 -9.739 # H1
263 88 2 -0.82 1.864 -3.974 -8.891 # O
264 88 1 0.41 1.566 -3.041 -8.502 # H2
265 89 1 0.41 1.737 -5.762 7.955 # H1
266 89 2 -0.82 0.879 -5.217 7.916 # O
267 89 1 0.41 1.076 -4.219 7.970 # H2
268 90 1 0.41 12.847 3.020 -11.288 # H1
269 90 2 -0.82 11.894 2.705 -11.571 # O
270 90 1 0.41 11.794 1.688 -11.639 # H2
271 91 1 0.41 1.612 3.152 5.047 # H1
272 91 2 -0.82 1.769 2.468 5.768 # O
273 91 1 0.41 2.501 1.827 5.430 # H2
274 92 1 0.41 -11.259 -2.865 -4.711 # H1
275 92 2 -0.82 -11.251 -3.435 -5.541 # O
276 92 1 0.41 -12.025 -4.119 -5.555 # H2
277 93 1 0.41 0.485 -3.154 3.457 # H1
278 93 2 -0.82 0.088 -4.076 3.700 # O
279 93 1 0.41 0.756 -4.680 4.188 # H2
280 94 1 0.41 12.053 1.347 0.234 # H1
281 94 2 -0.82 12.334 2.284 -0.022 # O
282 94 1 0.41 13.044 2.191 -0.731 # H2
283 95 1 0.41 4.007 -4.065 -6.495 # H1
284 95 2 -0.82 4.131 -4.942 -5.985 # O
285 95 1 0.41 3.438 -5.656 -6.219 # H2
286 96 1 0.41 3.862 -11.054 -7.018 # H1
287 96 2 -0.82 4.445 -11.434 -7.751 # O
288 96 1 0.41 4.001 -11.207 -8.648 # H2
289 97 1 0.41 5.562 -10.250 -1.328 # H1
290 97 2 -0.82 6.290 -9.597 -1.134 # O
291 97 1 0.41 6.187 -8.757 -1.626 # H2
292 98 1 0.41 0.671 11.562 6.761 # H1
293 98 2 -0.82 0.828 12.485 7.141 # O
294 98 1 0.41 0.457 13.109 6.406 # H2
295 99 1 0.41 -7.523 4.051 10.331 # H1
296 99 2 -0.82 -7.377 3.633 9.432 # O
297 99 1 0.41 -8.080 3.949 8.779 # H2
298 100 1 0.41 -5.654 5.980 8.060 # H1
299 100 2 -0.82 -6.312 6.750 8.043 # O
300 100 1 0.41 -6.165 7.467 8.747 # H2
301 101 1 0.41 7.340 6.949 -1.833 # H1
302 101 2 -0.82 7.534 6.818 -2.819 # O
303 101 1 0.41 8.517 6.513 -2.944 # H2
304 102 1 0.41 -3.311 1.697 -7.071 # H1
305 102 2 -0.82 -3.193 0.988 -6.367 # O
306 102 1 0.41 -2.925 0.135 -6.819 # H2
307 103 1 0.41 -4.115 -11.362 -1.073 # H1
308 103 2 -0.82 -4.366 -12.345 -1.091 # O
309 103 1 0.41 -4.372 -12.755 -0.159 # H2
310 104 1 0.41 -1.996 1.833 -1.881 # H1
311 104 2 -0.82 -2.887 1.378 -1.901 # O
312 104 1 0.41 -3.038 0.850 -1.035 # H2
313 105 1 0.41 2.628 -4.419 5.227 # H1
314 105 2 -0.82 2.944 -3.521 5.614 # O
315 105 1 0.41 2.138 -2.982 5.971 # H2
316 106 1 0.41 8.670 -9.947 4.595 # H1
317 106 2 -0.82 9.041 -9.197 5.174 # O
318 106 1 0.41 10.060 -9.071 5.080 # H2
319 107 1 0.41 -0.335 -10.287 -7.457 # H1
320 107 2 -0.82 -1.322 -10.424 -7.562 # O
321 107 1 0.41 -1.702 -9.822 -8.299 # H2
322 108 1 0.41 0.264 8.639 -5.760 # H1
323 108 2 -0.82 0.162 9.326 -6.496 # O
324 108 1 0.41 -0.238 8.872 -7.324 # H2
325 109 1 0.41 7.061 -7.952 3.402 # H1
326 109 2 -0.82 6.567 -7.103 3.285 # O
327 109 1 0.41 5.739 -7.203 3.913 # H2
328 110 1 0.41 -9.818 -11.009 2.292 # H1
329 110 2 -0.82 -9.943 -12.007 2.216 # O
330 110 1 0.41 -10.542 -12.241 1.410 # H2
331 111 1 0.41 11.333 2.679 9.083 # H1
332 111 2 -0.82 11.791 3.453 8.650 # O
333 111 1 0.41 11.590 4.267 9.228 # H2
334 112 1 0.41 6.311 9.057 4.304 # H1
335 112 2 -0.82 6.449 9.735 3.552 # O
336 112 1 0.41 7.372 10.124 3.690 # H2
337 113 1 0.41 13.303 -3.032 4.469 # H1
338 113 2 -0.82 12.402 -2.681 4.790 # O
339 113 1 0.41 11.616 -3.270 4.606 # H2
340 114 1 0.41 3.571 -0.066 3.867 # H1
341 114 2 -0.82 3.218 -0.498 4.719 # O
342 114 1 0.41 3.959 -0.830 5.331 # H2
343 115 1 0.41 12.625 -12.894 -8.016 # H1
344 115 2 -0.82 11.776 -12.311 -7.996 # O
345 115 1 0.41 11.930 -11.371 -8.375 # H2
346 116 1 0.41 -0.440 4.260 -1.912 # H1
347 116 2 -0.82 -0.630 3.511 -2.578 # O
348 116 1 0.41 -1.512 3.531 -2.993 # H2
349 117 1 0.41 -8.041 3.048 -2.886 # H1
350 117 2 -0.82 -8.705 2.561 -3.479 # O
351 117 1 0.41 -8.333 1.628 -3.542 # H2
352 118 1 0.41 -7.764 -10.559 3.463 # H1
353 118 2 -0.82 -7.096 -11.306 3.276 # O
354 118 1 0.41 -7.520 -12.231 3.384 # H2
355 119 1 0.41 -1.951 4.009 5.835 # H1
356 119 2 -0.82 -1.896 4.833 5.204 # O
357 119 1 0.41 -2.383 5.657 5.617 # H2
358 120 1 0.41 -10.979 4.435 -4.830 # H1
359 120 2 -0.82 -9.977 4.420 -5.183 # O
360 120 1 0.41 -9.481 3.822 -4.521 # H2
361 121 1 0.41 -0.608 -12.008 2.803 # H1
362 121 2 -0.82 -0.974 -11.116 2.484 # O
363 121 1 0.41 -0.920 -10.979 1.482 # H2
364 122 1 0.41 11.314 8.514 -12.964 # H1
365 122 2 -0.82 11.530 7.919 -12.167 # O
366 122 1 0.41 11.585 6.948 -12.477 # H2
367 123 1 0.41 10.450 12.117 -11.221 # H1
368 123 2 -0.82 11.365 11.772 -10.889 # O
369 123 1 0.41 11.293 11.134 -10.113 # H2
370 124 1 0.41 8.304 -0.340 -4.786 # H1
371 124 2 -0.82 7.433 -0.547 -5.314 # O
372 124 1 0.41 6.736 0.147 -5.070 # H2
373 125 1 0.41 5.693 5.265 -9.098 # H1
374 125 2 -0.82 5.501 5.086 -10.084 # O
375 125 1 0.41 6.037 4.282 -10.415 # H2
376 126 1 0.41 -9.882 -0.008 4.823 # H1
377 126 2 -0.82 -9.640 -0.807 5.389 # O
378 126 1 0.41 -9.772 -0.680 6.405 # H2
379 127 1 0.41 2.703 12.146 -9.888 # H1
380 127 2 -0.82 2.224 11.333 -10.232 # O
381 127 1 0.41 1.406 11.313 -9.634 # H2
382 128 1 0.41 -9.262 9.662 -10.397 # H1
383 128 2 -0.82 -9.306 10.530 -9.871 # O
384 128 1 0.41 -8.445 11.053 -10.024 # H2
385 129 1 0.41 -11.749 5.258 1.744 # H1
386 129 2 -0.82 -10.829 5.285 2.217 # O
387 129 1 0.41 -10.177 5.889 1.734 # H2
388 130 1 0.41 -0.124 8.176 4.323 # H1
389 130 2 -0.82 -0.995 8.621 4.574 # O
390 130 1 0.41 -1.632 7.956 4.994 # H2
391 131 1 0.41 11.211 5.806 6.723 # H1
392 131 2 -0.82 11.761 5.734 5.894 # O
393 131 1 0.41 12.587 5.129 6.041 # H2
394 132 1 0.41 4.306 4.886 -6.273 # H1
395 132 2 -0.82 4.522 4.094 -6.875 # O
396 132 1 0.41 3.697 3.582 -7.140 # H2
397 133 1 0.41 -12.496 9.489 -9.715 # H1
398 133 2 -0.82 -12.052 8.687 -10.152 # O
399 133 1 0.41 -12.623 8.247 -10.865 # H2
400 134 1 0.41 -6.011 -4.390 -6.264 # H1
401 134 2 -0.82 -5.519 -3.601 -5.839 # O
402 134 1 0.41 -5.197 -3.000 -6.591 # H2
403 135 1 0.41 -3.381 4.672 -8.086 # H1
404 135 2 -0.82 -3.505 3.646 -8.166 # O
405 135 1 0.41 -4.468 3.412 -8.380 # H2
406 136 1 0.41 -7.428 -4.935 -13.519 # H1
407 136 2 -0.82 -7.297 -4.812 -12.518 # O
408 136 1 0.41 -8.196 -4.844 -12.044 # H2
409 137 1 0.41 -4.061 8.978 3.702 # H1
410 137 2 -0.82 -3.425 8.428 3.108 # O
411 137 1 0.41 -2.486 8.625 3.426 # H2
412 138 1 0.41 2.965 11.265 -6.609 # H1
413 138 2 -0.82 1.978 11.467 -6.613 # O
414 138 1 0.41 1.356 10.683 -6.635 # H2
415 139 1 0.41 -7.910 8.605 -5.179 # H1
416 139 2 -0.82 -8.500 8.625 -4.363 # O
417 139 1 0.41 -8.430 7.731 -3.884 # H2
418 140 1 0.41 -1.714 6.309 -11.249 # H1
419 140 2 -0.82 -1.537 5.804 -10.378 # O
420 140 1 0.41 -0.690 6.079 -9.880 # H2
421 141 1 0.41 5.979 12.396 -1.354 # H1
422 141 2 -0.82 5.159 12.496 -0.772 # O
423 141 1 0.41 5.266 12.064 0.152 # H2
424 142 1 0.41 3.246 -3.436 0.213 # H1
425 142 2 -0.82 2.535 -3.485 0.944 # O
426 142 1 0.41 1.816 -2.840 0.724 # H2
427 143 1 0.41 9.840 -11.680 10.442 # H1
428 143 2 -0.82 8.955 -11.351 10.027 # O
429 143 1 0.41 9.016 -11.293 8.988 # H2
430 144 1 0.41 0.659 8.258 -8.858 # H1
431 144 2 -0.82 -0.351 8.328 -9.031 # O
432 144 1 0.41 -0.615 9.057 -9.700 # H2
433 145 1 0.41 -3.255 7.191 6.976 # H1
434 145 2 -0.82 -3.203 7.187 5.952 # O
435 145 1 0.41 -3.985 7.614 5.463 # H2
436 146 1 0.41 -8.432 -1.788 -6.394 # H1
437 146 2 -0.82 -8.670 -2.759 -6.179 # O
438 146 1 0.41 -9.678 -2.870 -6.144 # H2
439 147 1 0.41 -0.651 9.281 -0.796 # H1
440 147 2 -0.82 -0.960 9.602 0.120 # O
441 147 1 0.41 -0.580 8.943 0.787 # H2
442 148 1 0.41 4.047 -0.473 -9.971 # H1
443 148 2 -0.82 3.561 0.260 -10.545 # O
444 148 1 0.41 2.581 0.113 -10.738 # H2
445 149 1 0.41 0.442 1.432 -10.933 # H1
446 149 2 -0.82 0.044 2.244 -11.413 # O
447 149 1 0.41 -0.404 2.031 -12.306 # H2
448 150 1 0.41 -1.091 1.721 7.257 # H1
449 150 2 -0.82 -1.791 2.012 6.554 # O
450 150 1 0.41 -2.568 1.379 6.562 # H2
451 151 1 0.41 7.893 -11.857 3.052 # H1
452 151 2 -0.82 7.662 -11.352 2.191 # O
453 151 1 0.41 6.798 -10.749 2.264 # H2
454 152 1 0.41 10.873 0.870 3.182 # H1
455 152 2 -0.82 10.409 1.724 2.983 # O
456 152 1 0.41 11.099 2.471 2.978 # H2
457 153 1 0.41 -6.661 -1.297 6.463 # H1
458 153 2 -0.82 -6.522 -1.888 7.268 # O
459 153 1 0.41 -6.364 -2.851 6.915 # H2
460 154 1 0.41 -11.936 -10.173 7.903 # H1
461 154 2 -0.82 -11.150 -9.724 8.369 # O
462 154 1 0.41 -11.434 -8.749 8.470 # H2
463 155 1 0.41 2.587 6.731 8.177 # H1
464 155 2 -0.82 1.583 6.752 8.358 # O
465 155 1 0.41 1.037 6.039 7.884 # H2
466 156 1 0.41 4.440 -3.441 6.417 # H1
467 156 2 -0.82 5.277 -3.324 6.990 # O
468 156 1 0.41 5.120 -3.843 7.871 # H2
469 157 1 0.41 -9.906 11.130 -2.900 # H1
470 157 2 -0.82 -8.990 11.633 -2.987 # O
471 157 1 0.41 -8.240 11.094 -2.558 # H2
472 158 1 0.41 -9.269 -6.814 -10.625 # H1
473 158 2 -0.82 -9.035 -7.794 -10.387 # O
474 158 1 0.41 -9.546 -8.427 -11.032 # H2
475 159 1 0.41 10.634 8.192 -4.557 # H1
476 159 2 -0.82 11.246 7.407 -4.583 # O
477 159 1 0.41 11.661 7.190 -5.486 # H2
478 160 1 0.41 -8.440 -6.445 7.375 # H1
479 160 2 -0.82 -8.020 -7.297 6.971 # O
480 160 1 0.41 -7.098 -7.339 7.327 # H2
481 161 1 0.41 10.628 11.725 4.848 # H1
482 161 2 -0.82 10.107 12.537 5.135 # O
483 161 1 0.41 9.141 12.386 4.868 # H2
484 162 1 0.41 -1.214 10.063 -5.912 # H1
485 162 2 -0.82 -2.194 10.290 -5.770 # O
486 162 1 0.41 -2.365 10.820 -4.938 # H2
487 163 1 0.41 8.015 -3.587 -3.966 # H1
488 163 2 -0.82 8.219 -4.157 -3.138 # O
489 163 1 0.41 8.326 -3.560 -2.288 # H2
490 164 1 0.41 -9.033 5.692 -3.571 # H1
491 164 2 -0.82 -8.790 6.381 -2.865 # O
492 164 1 0.41 -9.625 6.656 -2.343 # H2
493 165 1 0.41 -5.750 10.050 -5.251 # H1
494 165 2 -0.82 -6.235 9.835 -6.141 # O
495 165 1 0.41 -7.014 10.518 -6.196 # H2
496 166 1 0.41 -1.875 -12.959 -5.795 # H1
497 166 2 -0.82 -2.213 -12.000 -5.655 # O
498 166 1 0.41 -1.880 -11.395 -6.423 # H2
499 167 1 0.41 -5.230 3.257 12.598 # H1
500 167 2 -0.82 -4.937 2.327 12.357 # O
501 167 1 0.41 -4.341 2.340 11.510 # H2
502 168 1 0.41 -5.212 9.621 -11.894 # H1
503 168 2 -0.82 -6.042 9.420 -11.324 # O
504 168 1 0.41 -6.036 8.424 -11.168 # H2
505 169 1 0.41 3.896 -3.966 -11.446 # H1
506 169 2 -0.82 3.327 -3.260 -11.024 # O
507 169 1 0.41 2.535 -2.961 -11.558 # H2
508 170 1 0.41 -9.011 -4.785 7.094 # H1
509 170 2 -0.82 -9.336 -4.977 8.028 # O
510 170 1 0.41 -9.986 -4.302 8.363 # H2
511 171 1 0.41 -1.669 11.293 -2.112 # H1
512 171 2 -0.82 -2.383 11.034 -2.827 # O
513 171 1 0.41 -3.291 11.369 -2.444 # H2
514 172 1 0.41 -5.153 2.157 -5.122 # H1
515 172 2 -0.82 -4.730 1.876 -4.235 # O
516 172 1 0.41 -3.800 1.477 -4.349 # H2
517 173 1 0.41 -3.173 12.758 -10.657 # H1
518 173 2 -0.82 -2.273 12.358 -10.901 # O
519 173 1 0.41 -1.781 12.848 -11.656 # H2
520 174 1 0.41 -11.286 -1.719 -8.631 # H1
521 174 2 -0.82 -11.990 -2.456 -8.456 # O
522 174 1 0.41 -11.937 -2.553 -7.464 # H2
523 175 1 0.41 -11.934 11.570 8.197 # H1
524 175 2 -0.82 -12.334 11.471 9.124 # O
525 175 1 0.41 -11.822 11.878 9.873 # H2
526 176 1 0.41 8.835 6.767 3.026 # H1
527 176 2 -0.82 8.425 7.651 2.766 # O
528 176 1 0.41 8.190 7.697 1.765 # H2
529 177 1 0.41 -12.593 2.968 -4.103 # H1
530 177 2 -0.82 -12.534 3.972 -4.262 # O
531 177 1 0.41 -13.203 4.498 -3.704 # H2
532 178 1 0.41 13.103 -6.457 -1.731 # H1
533 178 2 -0.82 12.280 -5.957 -1.431 # O
534 178 1 0.41 11.403 -6.225 -1.888 # H2
535 179 1 0.41 7.887 5.477 -8.113 # H1
536 179 2 -0.82 8.795 5.056 -8.006 # O
537 179 1 0.41 9.504 5.491 -8.594 # H2
538 180 1 0.41 -0.263 -9.291 -3.118 # H1
539 180 2 -0.82 0.498 -9.071 -2.472 # O
540 180 1 0.41 0.691 -8.071 -2.559 # H2
541 181 1 0.41 -6.033 3.269 8.463 # H1
542 181 2 -0.82 -5.071 3.332 8.076 # O
543 181 1 0.41 -5.012 3.613 7.112 # H2
544 182 1 0.41 -10.137 4.453 6.553 # H1
545 182 2 -0.82 -9.945 4.132 7.519 # O
546 182 1 0.41 -10.724 3.640 7.933 # H2
547 183 1 0.41 -5.717 -2.538 9.922 # H1
548 183 2 -0.82 -4.803 -2.458 10.347 # O
549 183 1 0.41 -5.005 -1.905 11.180 # H2
550 184 1 0.41 10.135 -5.090 0.899 # H1
551 184 2 -0.82 11.125 -5.366 0.909 # O
552 184 1 0.41 11.576 -5.486 0.011 # H2
553 185 1 0.41 7.361 -1.473 3.307 # H1
554 185 2 -0.82 7.382 -0.497 3.631 # O
555 185 1 0.41 6.906 0.209 3.052 # H2
556 186 1 0.41 3.428 -4.273 -4.070 # H1
557 186 2 -0.82 2.641 -4.101 -3.456 # O
558 186 1 0.41 3.027 -4.053 -2.560 # H2
559 187 1 0.41 -3.213 -13.129 8.521 # H1
560 187 2 -0.82 -2.796 -12.517 9.234 # O
561 187 1 0.41 -3.365 -11.767 9.422 # H2
562 188 1 0.41 3.493 -9.252 -2.396 # H1
563 188 2 -0.82 3.818 -9.059 -3.339 # O
564 188 1 0.41 4.508 -8.335 -3.288 # H2
565 189 1 0.41 -1.649 -1.720 3.638 # H1
566 189 2 -0.82 -1.989 -2.467 4.232 # O
567 189 1 0.41 -1.314 -3.238 4.262 # H2
568 190 1 0.41 3.488 10.419 5.138 # H1
569 190 2 -0.82 2.764 10.375 4.397 # O
570 190 1 0.41 3.142 10.654 3.485 # H2
571 191 1 0.41 3.089 9.951 -1.520 # H1
572 191 2 -0.82 3.034 10.493 -2.361 # O
573 191 1 0.41 3.445 11.414 -2.274 # H2
574 192 1 0.41 10.629 -0.973 -4.599 # H1
575 192 2 -0.82 10.359 -1.325 -5.486 # O
576 192 1 0.41 10.406 -0.653 -6.252 # H2
577 193 1 0.41 -4.205 8.990 -0.999 # H1
578 193 2 -0.82 -5.068 8.926 -1.499 # O
579 193 1 0.41 -5.306 7.964 -1.679 # H2
580 194 1 0.41 3.953 -1.414 10.035 # H1
581 194 2 -0.82 3.068 -1.014 9.740 # O
582 194 1 0.41 3.063 0.013 9.873 # H2
583 195 1 0.41 2.881 8.025 -8.805 # H1
584 195 2 -0.82 2.067 7.907 -8.229 # O
585 195 1 0.41 2.009 8.564 -7.452 # H2
586 196 1 0.41 -10.333 10.912 -8.537 # H1
587 196 2 -0.82 -10.753 11.478 -7.800 # O
588 196 1 0.41 -10.237 12.348 -7.750 # H2
589 197 1 0.41 7.713 8.183 -10.411 # H1
590 197 2 -0.82 8.026 7.729 -11.248 # O
591 197 1 0.41 8.688 8.331 -11.789 # H2
592 198 1 0.41 -5.653 -11.521 -6.452 # H1
593 198 2 -0.82 -5.315 -11.572 -5.499 # O
594 198 1 0.41 -4.337 -11.623 -5.459 # H2
595 199 1 0.41 -10.626 11.106 2.722 # H1
596 199 2 -0.82 -11.563 10.840 2.985 # O
597 199 1 0.41 -11.557 10.108 3.667 # H2
598 200 1 0.41 4.889 -5.753 -2.201 # H1
599 200 2 -0.82 4.504 -5.410 -1.320 # O
600 200 1 0.41 4.217 -6.153 -0.697 # H2
601 201 1 0.41 -7.074 -0.543 1.801 # H1
602 201 2 -0.82 -6.813 -1.521 1.567 # O
603 201 1 0.41 -6.211 -1.986 2.229 # H2
604 202 1 0.41 -7.887 -1.161 4.699 # H1
605 202 2 -0.82 -6.920 -0.888 4.579 # O
606 202 1 0.41 -6.869 -0.145 3.871 # H2
607 203 1 0.41 8.938 -4.500 -5.385 # H1
608 203 2 -0.82 9.726 -4.025 -5.805 # O
609 203 1 0.41 9.874 -3.002 -5.735 # H2
610 204 1 0.41 11.365 1.367 -2.612 # H1
611 204 2 -0.82 12.139 1.237 -3.285 # O
612 204 1 0.41 12.980 0.866 -2.806 # H2
613 205 1 0.41 -7.944 1.517 2.492 # H1
614 205 2 -0.82 -7.217 0.915 2.207 # O
615 205 1 0.41 -6.365 1.502 2.217 # H2
616 206 1 0.41 8.212 -0.605 -7.138 # H1
617 206 2 -0.82 8.801 -0.783 -7.965 # O
618 206 1 0.41 9.178 0.106 -8.332 # H2
619 207 1 0.41 10.077 -2.211 7.845 # H1
620 207 2 -0.82 9.143 -2.489 8.214 # O
621 207 1 0.41 8.545 -3.012 7.612 # H2
622 208 1 0.41 1.912 -7.908 -6.359 # H1
623 208 2 -0.82 1.635 -6.940 -6.443 # O
624 208 1 0.41 0.804 -6.724 -5.894 # H2
625 209 1 0.41 -4.356 13.459 2.045 # H1
626 209 2 -0.82 -4.358 12.471 2.285 # O
627 209 1 0.41 -5.299 12.073 2.374 # H2
628 210 1 0.41 3.531 -11.902 4.290 # H1
629 210 2 -0.82 4.356 -12.116 4.852 # O
630 210 1 0.41 4.298 -12.991 5.345 # H2
631 211 1 0.41 -10.169 3.448 2.465 # H1
632 211 2 -0.82 -9.628 2.651 2.800 # O
633 211 1 0.41 -10.173 2.229 3.571 # H2
634 212 1 0.41 0.155 6.782 -4.810 # H1
635 212 2 -0.82 -0.015 7.681 -4.398 # O
636 212 1 0.41 -0.868 7.751 -3.853 # H2
637 213 1 0.41 7.372 7.089 -4.434 # H1
638 213 2 -0.82 7.455 7.013 -5.441 # O
639 213 1 0.41 8.178 7.674 -5.777 # H2
640 214 1 0.41 -11.530 -10.507 -10.031 # H1
641 214 2 -0.82 -12.433 -10.272 -9.629 # O
642 214 1 0.41 -13.103 -10.089 -10.368 # H2
643 215 1 0.41 -5.931 7.473 5.927 # H1
644 215 2 -0.82 -5.672 8.156 5.223 # O
645 215 1 0.41 -5.949 9.106 5.516 # H2
646 216 1 0.41 -5.457 -1.342 13.030 # H1
647 216 2 -0.82 -5.167 -0.709 12.264 # O
648 216 1 0.41 -5.602 0.243 12.269 # H2
649 217 1 0.41 10.762 -8.413 -1.996 # H1
650 217 2 -0.82 10.939 -9.279 -1.547 # O
651 217 1 0.41 10.403 -9.338 -0.686 # H2
652 218 1 0.41 4.342 9.504 -8.336 # H1
653 218 2 -0.82 4.467 10.114 -7.523 # O
654 218 1 0.41 5.197 10.756 -7.772 # H2
655 219 1 0.41 8.006 -4.095 4.915 # H1
656 219 2 -0.82 7.671 -4.506 5.761 # O
657 219 1 0.41 6.801 -4.085 5.994 # H2
658 220 1 0.41 4.922 -2.059 -7.857 # H1
659 220 2 -0.82 4.461 -2.478 -7.063 # O
660 220 1 0.41 3.947 -1.743 -6.562 # H2
661 221 1 0.41 -9.681 -3.141 -11.381 # H1
662 221 2 -0.82 -9.625 -2.132 -11.412 # O
663 221 1 0.41 -9.343 -1.826 -12.357 # H2
664 222 1 0.41 4.430 -4.774 9.873 # H1
665 222 2 -0.82 4.937 -5.057 9.022 # O
666 222 1 0.41 5.710 -5.647 9.332 # H2
667 223 1 0.41 13.186 -11.491 6.214 # H1
668 223 2 -0.82 12.345 -11.624 6.778 # O
669 223 1 0.41 11.609 -12.217 6.319 # H2
670 224 1 0.41 -9.943 -10.990 5.222 # H1
671 224 2 -0.82 -10.751 -11.430 4.840 # O
672 224 1 0.41 -10.577 -11.635 3.881 # H2
673 225 1 0.41 -7.106 -11.515 -12.076 # H1
674 225 2 -0.82 -7.420 -10.541 -11.915 # O
675 225 1 0.41 -8.425 -10.500 -11.714 # H2
676 226 1 0.41 -7.856 -11.023 -8.366 # H1
677 226 2 -0.82 -6.887 -11.314 -8.432 # O
678 226 1 0.41 -6.662 -12.323 -8.313 # H2
679 227 1 0.41 9.273 8.114 6.696 # H1
680 227 2 -0.82 8.833 9.006 6.411 # O
681 227 1 0.41 9.308 9.401 5.625 # H2
682 228 1 0.41 -3.208 -9.799 1.843 # H1
683 228 2 -0.82 -4.160 -10.154 1.744 # O
684 228 1 0.41 -4.764 -9.759 2.457 # H2
685 229 1 0.41 -11.795 -6.476 8.115 # H1
686 229 2 -0.82 -12.242 -6.970 8.868 # O
687 229 1 0.41 -12.241 -6.402 9.700 # H2
688 230 1 0.41 -0.928 -4.476 2.524 # H1
689 230 2 -0.82 -1.623 -4.953 1.942 # O
690 230 1 0.41 -1.166 -5.585 1.270 # H2
691 231 1 0.41 8.539 -8.745 -7.368 # H1
692 231 2 -0.82 8.152 -9.625 -7.045 # O
693 231 1 0.41 7.524 -10.108 -7.664 # H2
694 232 1 0.41 12.872 7.542 1.807 # H1
695 232 2 -0.82 12.353 8.207 1.270 # O
696 232 1 0.41 12.580 9.144 1.634 # H2
697 233 1 0.41 2.454 -7.880 2.334 # H1
698 233 2 -0.82 2.842 -8.726 2.724 # O
699 233 1 0.41 3.169 -8.647 3.672 # H2
700 234 1 0.41 3.150 -7.185 -12.459 # H1
701 234 2 -0.82 2.569 -6.516 -11.990 # O
702 234 1 0.41 2.669 -6.766 -11.016 # H2
703 235 1 0.41 9.632 10.365 0.933 # H1
704 235 2 -0.82 9.717 10.154 1.951 # O
705 235 1 0.41 8.996 9.525 2.316 # H2
706 236 1 0.41 -10.856 4.980 -6.814 # H1
707 236 2 -0.82 -11.197 5.304 -7.718 # O
708 236 1 0.41 -11.834 4.642 -8.209 # H2
709 237 1 0.41 0.005 -10.569 11.839 # H1
710 237 2 -0.82 0.011 -9.899 11.084 # O
711 237 1 0.41 -0.756 -9.223 11.199 # H2
712 238 1 0.41 -6.795 9.848 -1.531 # H1
713 238 2 -0.82 -7.779 9.911 -1.537 # O
714 238 1 0.41 -8.120 9.104 -2.080 # H2
715 239 1 0.41 8.036 -5.976 6.698 # H1
716 239 2 -0.82 8.412 -6.859 7.041 # O
717 239 1 0.41 8.068 -7.608 6.439 # H2
718 240 1 0.41 -0.334 -9.783 -1.070 # H1
719 240 2 -0.82 -1.045 -10.247 -0.500 # O
720 240 1 0.41 -1.225 -11.229 -0.708 # H2
721 241 1 0.41 10.083 5.975 -4.660 # H1
722 241 2 -0.82 9.482 5.258 -4.208 # O
723 241 1 0.41 9.128 4.540 -4.863 # H2
724 242 1 0.41 2.179 1.246 -1.060 # H1
725 242 2 -0.82 2.316 0.737 -0.182 # O
726 242 1 0.41 1.754 -0.103 -0.190 # H2
727 243 1 0.41 0.178 11.645 -12.987 # H1
728 243 2 -0.82 0.139 12.468 -12.409 # O
729 243 1 0.41 0.852 12.424 -11.674 # H2
730 244 1 0.41 5.945 10.931 2.471 # H1
731 244 2 -0.82 5.816 11.711 1.823 # O
732 244 1 0.41 6.529 12.399 1.969 # H2
733 245 1 0.41 3.177 -9.070 -4.662 # H1
734 245 2 -0.82 2.952 -9.070 -5.677 # O
735 245 1 0.41 3.852 -8.800 -6.088 # H2
736 246 1 0.41 -12.322 12.298 0.908 # H1
737 246 2 -0.82 -11.524 12.265 0.254 # O
738 246 1 0.41 -11.641 13.090 -0.337 # H2
739 247 1 0.41 0.793 -0.688 -3.879 # H1
740 247 2 -0.82 1.361 -1.079 -3.133 # O
741 247 1 0.41 1.751 -1.971 -3.433 # H2
742 248 1 0.41 12.288 11.853 2.577 # H1
743 248 2 -0.82 11.510 12.097 1.923 # O
744 248 1 0.41 10.748 11.425 2.035 # H2
745 249 1 0.41 -10.175 9.306 12.332 # H1
746 249 2 -0.82 -9.936 9.830 11.465 # O
747 249 1 0.41 -10.590 10.576 11.200 # H2
748 250 1 0.41 9.543 -3.756 -7.819 # H1